<?xml version="1.0"?>
<VTKFile type="UnstructuredGrid" version="0.1" byte_order="LittleEndian" header_type="UInt32" compressor="vtkZLibDataCompressor">
  <UnstructuredGrid>
    <Piece NumberOfPoints="2025" NumberOfCells="0">
      <PointData>
        <DataArray type="Float64" Name="Volume" format="ascii" RangeMin="0.99999999999" RangeMax="1">
          1 1 1 1 1 1
          1 1 1 1 1 1
          1 1 1 1 1 1
          1 1 1 1 1 1
          0.99999999999 1 1 1 1 1
          1 1 1 1 1 1
          1 1 1 1 1 1
          1 1 1 1 1 1
          0.99999999999 0.99999999999 1 1 1 1
          1 1 1 1 1 1
          1 1 1 1 1 1
          1 1 1 1 1 1
          0.99999999999 0.99999999999 0.99999999999 1 1 1
          1 1 1 1 1 1
          1 1 1 1 1 1
          1 1 1 1 1 1
          0.99999999999 0.99999999999 0.99999999999 0.99999999999 1 1
          1 1 1 1 1 1
          1 1 1 1 1 1
          1 1 1 1 1 1
          1 0.99999999999 0.99999999999 0.99999999999 0.99999999999 1
          1 1 1 1 1 1
          1 1 1 1 1 1
          1 1 1 1 1 1
          1 1 1 0.99999999999 0.99999999999 0.99999999999
          1 1 1 1 1 1
          1 1 1 1 1 1
          1 1 1 1 1 1
          1 1 1 1 0.99999999999 0.99999999999
          0.99999999999 1 1 1 1 1
          1 1 1 1 1 1
          1 1 1 1 1 1
          1 1 1 1 1 0.99999999999
          0.99999999999 0.99999999999 1 1 1 1
          1 1 1 1 1 1
          1 1 1 1 1 1
          1 1 1 1 1 0.99999999999
          0.99999999999 0.99999999999 0.99999999999 1 1 1
          1 1 1 1 1 1
          1 1 1 1 1 1
          1 1 1 1 1 0.99999999999
          0.99999999999 0.99999999999 0.99999999999 0.99999999999 0.99999999999 0.99999999999
          0.99999999999 0.99999999999 0.99999999999 0.99999999999 0.99999999999 0.99999999999
          0.99999999999 0.99999999999 0.99999999999 0.99999999999 0.99999999999 0.99999999999
          0.99999999999 0.99999999999 0.99999999999 0.99999999999 0.99999999999 0.99999999999
          0.99999999999 0.99999999999 0.99999999999 0.99999999999 0.99999999999 0.99999999999
          0.99999999999 0.99999999999 0.99999999999 0.99999999999 0.99999999999 0.99999999999
          0.99999999999 0.99999999999 0.99999999999 0.99999999999 0.99999999999 0.99999999999
          0.99999999999 0.99999999999 0.99999999999 0.99999999999 0.99999999999 0.99999999999
          0.99999999999 0.99999999999 0.99999999999 0.99999999999 0.99999999999 0.99999999999
          0.99999999999 0.99999999999 0.99999999999 0.99999999999 0.99999999999 0.99999999999
          0.99999999999 0.99999999999 0.99999999999 0.99999999999 0.99999999999 0.99999999999
          0.99999999999 0.99999999999 0.99999999999 0.99999999999 0.99999999999 0.99999999999
          0.99999999999 0.99999999999 0.99999999999 0.99999999999 0.99999999999 0.99999999999
          0.99999999999 0.99999999999 0.99999999999 0.99999999999 0.99999999999 0.99999999999
          0.99999999999 0.99999999999 0.99999999999 0.99999999999 0.99999999999 0.99999999999
          0.99999999999 0.99999999999 0.99999999999 0.99999999999 0.99999999999 0.99999999999
          0.99999999999 0.99999999999 0.99999999999 0.99999999999 0.99999999999 0.99999999999
          0.99999999999 0.99999999999 0.99999999999 0.99999999999 0.99999999999 0.99999999999
          0.99999999999 0.99999999999 0.99999999999 0.99999999999 0.99999999999 0.99999999999
          0.99999999999 0.99999999999 0.99999999999 0.99999999999 0.99999999999 0.99999999999
          0.99999999999 0.99999999999 0.99999999999 0.99999999999 0.99999999999 0.99999999999
          0.99999999999 0.99999999999 0.99999999999 0.99999999999 0.99999999999 0.99999999999
          0.99999999999 0.99999999999 0.99999999999 0.99999999999 0.99999999999 0.99999999999
          0.99999999999 0.99999999999 0.99999999999 0.99999999999 0.99999999999 0.99999999999
          0.99999999999 0.99999999999 0.99999999999 0.99999999999 0.99999999999 0.99999999999
          0.99999999999 0.99999999999 0.99999999999 0.99999999999 0.99999999999 0.99999999999
          0.99999999999 0.99999999999 0.99999999999 0.99999999999 1 1
          1 1 1 1 1 1
          1 1 1 1 1 1
          1 1 1 1 1 0.99999999999
          0.99999999999 1 1 1 1 1
          1 1 1 1 1 1
          1 1 1 1 1 1
          1 1 1 1 1 1
          0.99999999999 1 1 1 1 1
          1 1 1 1 1 1
          1 1 1 1 1 1
          1 1 1 1 1 1
          1 1 1 1 1 1
          1 1 1 1 1 1
          1 1 1 1 1 1
          1 1 1 1 1 1
          1 1 1 1 1 1
          1 1 1 1 1 1
          1 1 1 1 1 1
          1 1 1 1 1 1
          1 1 1 1 1 1
          1 1 1 1 1 1
          1 1 1 1 1 1
          1 1 1 1 1 1
          1 1 1 1 1 1
          1 1 1 1 1 1
          1 1 1 1 1 1
          1 1 1 1 1 1
          1 1 1 1 1 1
          1 1 1 1 1 1
          1 1 1 1 1 1
          1 1 1 1 1 1
          1 1 1 1 1 1
          1 1 1 1 1 1
          1 1 1 1 1 1
          1 1 1 1 1 1
          1 1 1 1 1 1
          1 1 1 1 1 1
          1 1 1 1 1 1
          1 1 1 1 1 1
          1 1 1 1 1 1
          1 1 1 1 1 1
          1 1 1 1 1 1
          1 1 1 1 1 1
          1 1 1 1 1 1
          1 1 1 1 1 1
          1 1 1 1 1 1
          1 1 1 1 1 1
          1 1 1 1 1 1
          1 1 1 1 1 1
          1 1 1 1 1 1
          1 1 1 1 1 1
          1 1 1 1 1 1
          1 1 1 1 1 1
          1 1 1 1 1 1
          1 1 1 1 1 1
          1 1 1 1 1 1
          1 1 1 1 1 1
          1 1 1 1 1 1
          1 1 1 1 1 1
          1 1 1 1 1 1
          1 1 1 1 1 1
          1 1 1 1 1 1
          1 1 1 1 1 1
          1 1 1 1 1 1
          1 1 1 1 1 1
          1 1 1 1 1 1
          1 1 1 1 1 1
          1 1 1 1 1 1
          1 1 1 1 1 1
          1 1 1 1 1 1
          1 1 1 1 1 1
          1 1 1 1 1 1
          1 1 1 1 1 1
          1 1 1 1 1 1
          1 1 1 1 1 1
          1 1 1 1 1 1
          1 1 1 1 1 1
          1 1 1 1 1 1
          1 1 1 1 1 1
          1 1 1 1 1 1
          1 1 1 1 1 1
          1 1 1 1 1 1
          1 1 1 1 1 1
          1 1 1 1 1 1
          1 1 1 1 1 1
          1 1 1 1 1 1
          1 1 1 1 1 1
          1 1 1 1 1 1
          1 1 1 1 1 1
          1 1 1 1 1 1
          1 1 1 1 1 1
          1 1 1 1 1 1
          1 1 1 1 1 1
          1 1 1 1 1 1
          1 1 1 1 1 1
          1 1 1 1 1 1
          1 1 1 1 1 1
          1 1 1 1 1 1
          1 1 1 1 1 1
          1 1 1 1 1 1
          1 1 1 1 1 1
          1 1 1 1 1 1
          1 1 1 1 1 1
          1 1 1 1 1 1
          1 1 1 1 1 1
          1 1 1 1 1 1
          1 1 1 1 1 1
          1 1 1 1 1 1
          1 1 1 1 1 1
          1 1 1 1 1 1
          1 1 1 1 1 1
          1 1 1 1 1 1
          1 1 1 1 1 1
          1 1 1 1 1 1
          1 1 1 1 1 1
          1 1 1 1 1 1
          1 1 1 1 1 1
          1 1 1 1 1 1
          1 1 1 1 1 1
          1 1 1 1 1 1
          1 1 1 1 1 1
          1 1 1 1 1 1
          1 1 1 1 1 1
          1 1 1 1 1 1
          1 1 1 1 1 1
          1 1 1 1 1 1
          1 1 1 1 1 1
          1 1 1 1 1 1
          1 1 1 1 1 1
          1 1 1 1 1 1
          1 1 1 1 1 1
          1 1 1 1 1 1
          1 1 1 1 1 1
          1 1 1 1 1 1
          1 1 1 1 1 1
          1 1 1 1 1 1
          1 1 1 1 1 1
          1 1 1 1 1 1
          1 1 1 1 1 1
          1 1 1 1 1 1
          1 1 1 1 1 1
          1 1 1 1 1 1
          1 1 1 1 1 1
          1 1 1 1 1 1
          1 1 1 1 1 1
          1 1 1 1 1 1
          1 1 1 1 1 1
          1 1 1 1 1 1
          1 1 1 1 1 1
          1 1 1 1 1 1
          1 1 1 1 1 1
          1 1 1 1 1 1
          1 1 1 1 1 1
          1 1 1 1 1 1
          1 1 1 1 1 1
          1 1 1 1 1 1
          1 1 1 1 1 1
          1 1 1 1 1 1
          1 1 1 1 1 1
          1 1 1 1 1 1
          1 1 1 1 1 1
          1 1 1 1 1 1
          1 1 1 1 1 1
          1 1 1 1 1 1
          1 1 1 1 1 1
          1 1 1 1 1 1
          1 1 1 1 1 1
          1 1 1 1 1 1
          1 1 1 1 1 1
          1 1 1 1 1 1
          1 1 1 1 1 1
          1 1 1 1 1 1
          1 1 1 1 1 1
          1 1 1 1 1 1
          1 1 1 1 1 1
          1 1 1 1 1 1
          1 1 1 1 1 1
          1 1 1 1 1 1
          1 1 1 1 1 1
          1 1 1 1 1 1
          1 1 1 1 1 1
          1 1 1 1 1 1
          1 1 1 1 1 1
          1 1 1 1 1 1
          1 1 1 1 1 1
          1 1 1 1 1 1
          1 1 1 1 1 1
          1 1 1 1 1 1
          1 1 1 1 1 1
          1 1 1 1 1 1
          1 1 1 1 1 1
          1 1 1 1 1 1
          1 1 1 1 1 1
          1 1 1 1 1 1
          1 1 1 1 1 1
          1 1 1 1 1 1
          1 1 1 1 1 1
          1 1 1 1 1 1
          1 1 1 1 1 1
          1 1 1 1 1 1
          1 1 1 1 1 1
          1 1 1 1 1 1
          1 1 1 1 0.99999999999 0.99999999999
          0.99999999999 0.99999999999 0.99999999999 0.99999999999 0.99999999999 0.99999999999
          0.99999999999 0.99999999999 0.99999999999 0.99999999999 0.99999999999 0.99999999999
          0.99999999999 0.99999999999 0.99999999999 0.99999999999 0.99999999999 0.99999999999
          0.99999999999 0.99999999999 0.99999999999 0.99999999999 0.99999999999 0.99999999999
          0.99999999999 0.99999999999 0.99999999999 0.99999999999 0.99999999999 0.99999999999
          0.99999999999 0.99999999999 0.99999999999 0.99999999999 0.99999999999 0.99999999999
          0.99999999999 0.99999999999 0.99999999999 0.99999999999 0.99999999999 0.99999999999
          0.99999999999 0.99999999999 0.99999999999 0.99999999999 0.99999999999 0.99999999999
          0.99999999999 0.99999999999 0.99999999999 0.99999999999 0.99999999999 0.99999999999
          0.99999999999 0.99999999999 0.99999999999 0.99999999999 0.99999999999 0.99999999999
          0.99999999999 0.99999999999 0.99999999999 0.99999999999 0.99999999999 0.99999999999
          0.99999999999 0.99999999999 0.99999999999 0.99999999999 0.99999999999 0.99999999999
          0.99999999999 0.99999999999 0.99999999999 0.99999999999 0.99999999999 0.99999999999
          0.99999999999 0.99999999999 0.99999999999 0.99999999999 0.99999999999 0.99999999999
          0.99999999999 0.99999999999 0.99999999999 0.99999999999 0.99999999999 0.99999999999
          0.99999999999 0.99999999999 0.99999999999 0.99999999999 0.99999999999 0.99999999999
          0.99999999999 0.99999999999 0.99999999999 0.99999999999 0.99999999999 0.99999999999
          0.99999999999 0.99999999999 0.99999999999 0.99999999999 0.99999999999 0.99999999999
          0.99999999999 0.99999999999 0.99999999999 0.99999999999 0.99999999999 0.99999999999
          0.99999999999 0.99999999999 0.99999999999 0.99999999999 0.99999999999 0.99999999999
          0.99999999999 0.99999999999 0.99999999999 0.99999999999 0.99999999999 0.99999999999
          0.99999999999 0.99999999999 0.99999999999 0.99999999999 0.99999999999 0.99999999999
          0.99999999999 0.99999999999 0.99999999999 0.99999999999 0.99999999999 0.99999999999
          0.99999999999 0.99999999999 0.99999999999 0.99999999999 0.99999999999 0.99999999999
          0.99999999999 0.99999999999 0.99999999999 0.99999999999 0.99999999999 0.99999999999
          0.99999999999 0.99999999999 0.99999999999 0.99999999999 0.99999999999 0.99999999999
          0.99999999999 0.99999999999 0.99999999999 0.99999999999 0.99999999999 0.99999999999
          0.99999999999 0.99999999999 0.99999999999 0.99999999999 0.99999999999 0.99999999999
          0.99999999999 0.99999999999 0.99999999999 0.99999999999 0.99999999999 0.99999999999
          0.99999999999 0.99999999999 0.99999999999 0.99999999999 0.99999999999 0.99999999999
          0.99999999999 0.99999999999 0.99999999999 0.99999999999 0.99999999999 0.99999999999
          0.99999999999 0.99999999999 0.99999999999 0.99999999999 0.99999999999 0.99999999999
          0.99999999999 0.99999999999 0.99999999999 0.99999999999 0.99999999999 0.99999999999
          0.99999999999 0.99999999999 0.99999999999 0.99999999999 0.99999999999 0.99999999999
          0.99999999999 0.99999999999 0.99999999999 0.99999999999 0.99999999999 0.99999999999
          0.99999999999 0.99999999999 0.99999999999 0.99999999999 0.99999999999 0.99999999999
          0.99999999999 0.99999999999 0.99999999999 0.99999999999 0.99999999999 0.99999999999
          0.99999999999 0.99999999999 0.99999999999 0.99999999999 0.99999999999 0.99999999999
          0.99999999999 0.99999999999 0.99999999999 0.99999999999 0.99999999999 0.99999999999
          0.99999999999 0.99999999999 0.99999999999 0.99999999999 0.99999999999 0.99999999999
          0.99999999999 0.99999999999 0.99999999999 0.99999999999 0.99999999999 0.99999999999
          0.99999999999 0.99999999999 0.99999999999 0.99999999999 0.99999999999 0.99999999999
          0.99999999999 0.99999999999 0.99999999999 0.99999999999 0.99999999999 0.99999999999
          0.99999999999 0.99999999999 0.99999999999 0.99999999999 0.99999999999 0.99999999999
          0.99999999999 0.99999999999 0.99999999999 0.99999999999 0.99999999999 0.99999999999
          0.99999999999 0.99999999999 0.99999999999 0.99999999999 0.99999999999 0.99999999999
          0.99999999999 0.99999999999 0.99999999999 0.99999999999 0.99999999999 0.99999999999
          0.99999999999 0.99999999999 0.99999999999 0.99999999999 0.99999999999 0.99999999999
          0.99999999999 0.99999999999 0.99999999999 0.99999999999 0.99999999999 0.99999999999
          0.99999999999 0.99999999999 0.99999999999 0.99999999999 0.99999999999 0.99999999999
          0.99999999999 0.99999999999 0.99999999999 0.99999999999 0.99999999999 0.99999999999
          0.99999999999 0.99999999999 0.99999999999 0.99999999999 0.99999999999 0.99999999999
          0.99999999999 0.99999999999 0.99999999999 0.99999999999 0.99999999999 0.99999999999
          0.99999999999 0.99999999999 0.99999999999 0.99999999999 0.99999999999 0.99999999999
          0.99999999999 0.99999999999 0.99999999999 0.99999999999 0.99999999999 0.99999999999
          0.99999999999 0.99999999999 0.99999999999 0.99999999999 0.99999999999 0.99999999999
          0.99999999999 0.99999999999 0.99999999999 0.99999999999 0.99999999999 0.99999999999
          0.99999999999 0.99999999999 0.99999999999 0.99999999999 0.99999999999 0.99999999999
          0.99999999999 0.99999999999 0.99999999999 0.99999999999 0.99999999999 0.99999999999
          0.99999999999 0.99999999999 0.99999999999 0.99999999999 0.99999999999 0.99999999999
          0.99999999999 0.99999999999 0.99999999999 0.99999999999 0.99999999999 0.99999999999
          0.99999999999 0.99999999999 0.99999999999 0.99999999999 0.99999999999 0.99999999999
          0.99999999999 0.99999999999 0.99999999999 0.99999999999 0.99999999999 0.99999999999
          0.99999999999 0.99999999999 0.99999999999 0.99999999999 0.99999999999 0.99999999999
          0.99999999999 0.99999999999 0.99999999999 0.99999999999 0.99999999999 0.99999999999
          0.99999999999 0.99999999999 0.99999999999 0.99999999999 0.99999999999 0.99999999999
          0.99999999999 0.99999999999 0.99999999999
        </DataArray>
      </PointData>
      <CellData>
      </CellData>
      <Points>
        <DataArray type="Float64" Name="Points" NumberOfComponents="3" format="ascii" RangeMin="0.5" RangeMax="81.389495637">
          0.5 -12 0 0.5 -11 0
          0.5 -10 0 0.5 -9 0
          0.5 -8 0 0.5 -7 0
          0.5 -6 0 0.5 -5 0
          0.5 -4 0 0.5 -3 0
          0.5 -2 0 0.5 -0.99999999996 0
          0.5 4.2844838788e-11 0 0.5 1 0
          0.5 2 0 0.5 3 0
          0.5 4 0 0.5 5 0
          0.5 6 0 0.5 7 0
          0.5 8 0 0.5 9 0
          0.5 10 0 0.5 11 0
          0.5 12 0 1.5 -12 0
          1.5 -11 0 1.5 -10 0
          1.5 -9 0 1.5 -8 0
          1.5 -7 0 1.5 -6 0
          1.5 -5 0 1.5 -4 0
          1.5 -3 0 1.5 -2 0
          1.5 -0.99999999996 0 1.5 4.1773695614e-11 0
          1.5 1 0 1.5 2 0
          1.5 3 0 1.5 4 0
          1.5 5 0 1.5 6 0
          1.5 7 0 1.5 8 0
          1.5 9 0 1.5 10 0
          1.5 11 0 1.5 12 0
          2.5 -12 0 2.5 -11 0
          2.5 -10 0 2.5 -9 0
          2.5 -8 0 2.5 -7 0
          2.5 -6 0 2.5 -5 0
          2.5 -4 0 2.5 -3 0
          2.5 -2 0 2.5 -0.99999999996 0
          2.5 4.070255244e-11 0 2.5 1 0
          2.5 2 0 2.5 3 0
          2.5 4 0 2.5 5 0
          2.5 6 0 2.5 7 0
          2.5 8 0 2.5 9 0
          2.5 10 0 2.5 11 0
          2.5 12 0 3.5 -12 0
          3.5 -11 0 3.5 -10 0
          3.5 -9 0 3.5 -8 0
          3.5 -7 0 3.5 -6 0
          3.5 -5 0 3.5 -4 0
          3.5 -3 0 3.5 -2 0
          3.5 -0.99999999996 0 3.5 3.9631409265e-11 0
          3.5 1 0 3.5 2 0
          3.5 3 0 3.5 4 0
          3.5 5 0 3.5 6 0
          3.5 7 0 3.5 8 0
          3.5 9 0 3.5 10 0
          3.5 11 0 3.5 12 0
          4.5 -12 0 4.5 -11 0
          4.5 -10 0 4.5 -9 0
          4.5 -8 0 4.5 -7 0
          4.5 -6 0 4.5 -5 0
          4.5 -4 0 4.5 -3 0
          4.5 -2 0 4.5 -0.99999999996 0
          4.5 3.8560266091e-11 0 4.5 1 0
          4.5 2 0 4.5 3 0
          4.5 4 0 4.5 5 0
          4.5 6 0 4.5 7 0
          4.5 8 0 4.5 9 0
          4.5 10 0 4.5 11 0
          4.5 12 0 5.5 -12 0
          5.5 -11 0 5.5 -10 0
          5.5 -9 0 5.5 -8 0
          5.5 -7 0 5.5 -6 0
          5.5 -5 0 5.5 -4 0
          5.5 -3 0 5.5 -2 0
          5.5 -0.99999999996 0 5.5 3.7489122917e-11 0
          5.5 1 0 5.5 2 0
          5.5 3 0 5.5 4 0
          5.5 5 0 5.5 6 0
          5.5 7 0 5.5 8 0
          5.5 9 0 5.5 10 0
          5.5 11 0 5.5 12 0
          6.5 -12 0 6.5 -11 0
          6.5 -10 0 6.5 -9 0
          6.5 -8 0 6.5 -7 0
          6.5 -6 0 6.5 -5 0
          6.5 -4 0 6.5 -3 0
          6.5 -2 0 6.5 -0.99999999996 0
          6.5 3.6418201788e-11 0 6.5 1 0
          6.5 2 0 6.5 3 0
          6.5 4 0 6.5 5 0
          6.5 6 0 6.5 7 0
          6.5 8 0 6.5 9 0
          6.5 10 0 6.5 11 0
          6.5 12 0 7.5 -12 0
          7.5 -11 0 7.5 -10 0
          7.5 -9 0 7.5 -8 0
          7.5 -7 0 7.5 -6 0
          7.5 -5 0 7.5 -4 0
          7.5 -3 0 7.5 -2 0
          7.5 -0.99999999996 0 7.5 3.5347058613e-11 0
          7.5 1 0 7.5 2 0
          7.5 3 0 7.5 4 0
          7.5 5 0 7.5 6 0
          7.5 7 0 7.5 8 0
          7.5 9 0 7.5 10 0
          7.5 11 0 7.5 12 0
          8.5 -12 0 8.5 -11 0
          8.5 -10 0 8.5 -9 0
          8.5 -8 0 8.5 -7 0
          8.5 -6 0 8.5 -5 0
          8.5 -4 0 8.5 -3 0
          8.5 -2 0 8.5 -0.99999999996 0
          8.5 3.4275915439e-11 0 8.5 1 0
          8.5 2 0 8.5 3 0
          8.5 4 0 8.5 5 0
          8.5 6 0 8.5 7 0
          8.5 8 0 8.5 9 0
          8.5 10 0 8.5 11 0
          8.5 12 0 9.5 -12 0
          9.5 -11 0 9.5 -10 0
          9.5 -9 0 9.5 -8 0
          9.5 -7 0 9.5 -6 0
          9.5 -5 0 9.5 -4 0
          9.5 -3 0 9.5 -2 0
          9.5 -0.99999999997 0 9.5 3.320499431e-11 0
          9.5 1 0 9.5 2 0
          9.5 3 0 9.5 4 0
          9.5 5 0 9.5 6 0
          9.5 7 0 9.5 8 0
          9.5 9 0 9.5 10 0
          9.5 11 0 9.5 12 0
          10.5 -12 0 10.5 -11 0
          10.5 -10 0 10.5 -9 0
          10.5 -8 0 10.5 -7 0
          10.5 -6 0 10.5 -5 0
          10.5 -4 0 10.5 -3 0
          10.5 -2 0 10.5 -0.99999999997 0
          10.5 3.2133629091e-11 0 10.5 1 0
          10.5 2 0 10.5 3 0
          10.5 4 0 10.5 5 0
          10.5 6 0 10.5 7 0
          10.5 8 0 10.5 9 0
          10.5 10 0 10.5 11 0
          10.5 12 0 11.5 -12 0
          11.5 -11 0 11.5 -10 0
          11.5 -9 0 11.5 -8 0
          11.5 -7 0 11.5 -6 0
          11.5 -5 0 11.5 -4 0
          11.5 -3 0 11.5 -2 0
          11.5 -0.99999999997 0 11.5 3.1062041828e-11 0
          11.5 1 0 11.5 2 0
          11.5 3 0 11.5 4 0
          11.5 5 0 11.5 6 0
          11.5 7 0 11.5 8 0
          11.5 9 0 11.5 10 0
          11.5 11 0 11.5 12 0
          12.5 -12 0 12.5 -11 0
          12.5 -10 0 12.5 -9 0
          12.5 -8 0 12.5 -7 0
          12.5 -6 0 12.5 -5 0
          12.5 -4 0 12.5 -3 0
          12.5 -2 0 12.5 -0.99999999997 0
          12.5 2.9990898653e-11 0 12.5 1 0
          12.5 2 0 12.5 3 0
          12.5 4 0 12.5 5 0
          12.5 6 0 12.5 7 0
          12.5 8 0 12.5 9 0
          12.5 10 0 12.5 11 0
          12.5 12 0 13.5 -12 0
          13.5 -11 0 13.5 -10 0
          13.5 -9 0 13.5 -8 0
          13.5 -7 0 13.5 -6 0
          13.5 -5 0 13.5 -4 0
          13.5 -3 0 13.5 -2 0
          13.5 -0.99999999997 0 13.5 2.8920421613e-11 0
          13.5 1 0 13.5 2 0
          13.5 3 0 13.5 4 0
          13.5 5 0 13.5 6 0
          13.5 7 0 13.5 8 0
          13.5 9 0 13.5 10 0
          13.5 11 0 13.5 12 0
          14.5 -12 0 14.5 -11 0
          14.5 -10 0 14.5 -9 0
          14.5 -8 0 14.5 -7 0
          14.5 -6 0 14.5 -5 0
          14.5 -4 0 14.5 -3 0
          14.5 -2 0 14.5 -0.99999999997 0
          14.5 2.7849500484e-11 0 14.5 1 0
          14.5 2 0 14.5 3 0
          14.5 4 0 14.5 5 0
          14.5 6 0 14.5 7 0
          14.5 8 0 14.5 9 0
          14.5 10 0 14.5 11 0
          14.5 12 0 15.5 -12 0
          15.5 -11 0 15.5 -10 0
          15.5 -9 0 15.5 -8 0
          15.5 -7 0 15.5 -6 0
          15.5 -5 0 15.5 -4 0
          15.5 -3 0 15.5 -2 0
          15.5 -0.99999999997 0 15.5 2.6778135265e-11 0
          15.5 1 0 15.5 2 0
          15.5 3 0 15.5 4 0
          15.5 5 0 15.5 6 0
          15.5 7 0 15.5 8 0
          15.5 9 0 15.5 10 0
          15.5 11 0 15.5 12 0
          16.5 -12 0 16.5 -11 0
          16.5 -10 0 16.5 -9 0
          16.5 -8 0 16.5 -7 0
          16.5 -6 0 16.5 -5 0
          16.5 -4 0 16.5 -3 0
          16.5 -2 0 16.5 -0.99999999997 0
          16.5 2.5706770046e-11 0 16.5 1 0
          16.5 2 0 16.5 3 0
          16.5 4 0 16.5 5 0
          16.5 6 0 16.5 7 0
          16.5 8 0 16.5 9 0
          16.5 10 0 16.5 11 0
          16.5 12 0 17.5 -12 0
          17.5 -11 0 17.5 -10 0
          17.5 -9 0 17.5 -8 0
          17.5 -7 0 17.5 -6 0
          17.5 -5 0 17.5 -4 0
          17.5 -3 0 17.5 -2 0
          17.5 -0.99999999997 0 17.5 2.4635404827e-11 0
          17.5 1 0 17.5 2 0
          17.5 3 0 17.5 4 0
          17.5 5 0 17.5 6 0
          17.5 7 0 17.5 8 0
          17.5 9 0 17.5 10 0
          17.5 11 0 17.5 12 0
          18.5 -12 0 18.5 -11 0
          18.5 -10 0 18.5 -9 0
          18.5 -8 0 18.5 -7 0
          18.5 -6 0 18.5 -5 0
          18.5 -4 0 18.5 -3 0
          18.5 -2 0 18.5 -0.99999999997 0
          18.5 2.3564705742e-11 0 18.5 1 0
          18.5 2 0 18.5 3 0
          18.5 4 0 18.5 5 0
          18.5 6 0 18.5 7 0
          18.5 8 0 18.5 9 0
          18.5 10 0 18.5 11 0
          18.5 12 0 19.5 -12 0
          19.5 -11 0 19.5 -10 0
          19.5 -9 0 19.5 -8 0
          19.5 -7 0 19.5 -6 0
          19.5 -5 0 19.5 -4 0
          19.5 -3 0 19.5 -2 0
          19.5 -0.99999999998 0 19.5 2.2493784613e-11 0
          19.5 1 0 19.5 2 0
          19.5 3 0 19.5 4 0
          19.5 5 0 19.5 6 0
          19.5 7 0 19.5 8 0
          19.5 9 0 19.5 10 0
          19.5 11 0 19.5 12 0
          20.5 -12 0 20.5 -11 0
          20.5 -10 0 20.5 -9 0
          20.5 -8 0 20.5 -7 0
          20.5 -6 0 20.5 -5 0
          20.5 -4 0 20.5 -3 0
          20.5 -2 0 20.5 -0.99999999998 0
          20.5 2.1421975305e-11 0 20.5 1 0
          20.5 2 0 20.5 3 0
          20.5 4 0 20.5 5 0
          20.5 6 0 20.5 7 0
          20.5 8 0 20.5 9 0
          20.5 10 0 20.5 11 0
          20.5 12 0 21.5 -12 0
          21.5 -11 0 21.5 -10 0
          21.5 -9 0 21.5 -8 0
          21.5 -7 0 21.5 -6 0
          21.5 -5 0 21.5 -4 0
          21.5 -3 0 21.5 -2 0
          21.5 -0.99999999998 0 21.5 2.0351054175e-11 0
          21.5 1 0 21.5 2 0
          21.5 3 0 21.5 4 0
          21.5 5 0 21.5 6 0
          21.5 7 0 21.5 8 0
          21.5 9 0 21.5 10 0
          21.5 11 0 21.5 12 0
          22.5 -12 0 22.5 -11 0
          22.5 -10 0 22.5 -9 0
          22.5 -8 0 22.5 -7 0
          22.5 -6 0 22.5 -5 0
          22.5 -4 0 22.5 -3 0
          22.5 -2 0 22.5 -0.99999999998 0
          22.5 1.928035509e-11 0 22.5 1 0
          22.5 2 0 22.5 3 0
          22.5 4 0 22.5 5 0
          22.5 6 0 22.5 7 0
          22.5 8 0 22.5 9 0
          22.5 10 0 22.5 11 0
          22.5 12 0 23.5 -12 0
          23.5 -11 0 23.5 -10 0
          23.5 -9 0 23.5 -8 0
          23.5 -7 0 23.5 -6 0
          23.5 -5 0 23.5 -4 0
          23.5 -3 0 23.5 -2 0
          23.5 -0.99999999998 0 23.5 1.8209656005e-11 0
          23.5 1 0 23.5 2 0
          23.5 3 0 23.5 4 0
          23.5 5 0 23.5 6 0
          23.5 7 0 23.5 8 0
          23.5 9 0 23.5 10 0
          23.5 11 0 23.5 12 0
          24.5 -12 0 24.5 -11 0
          24.5 -10 0 24.5 -9 0
          24.5 -8 0 24.5 -7 0
          24.5 -6 0 24.5 -5 0
          24.5 -4 0 24.5 -3 0
          24.5 -2 0 24.5 -0.99999999998 0
          24.5 1.7139067943e-11 0 24.5 1 0
          24.5 2 0 24.5 3 0
          24.5 4 0 24.5 5 0
          24.5 6 0 24.5 7 0
          24.5 8 0 24.5 9 0
          24.5 10 0 24.5 11 0
          24.5 12 0 25.5 -12 0
          25.5 -11 0 25.5 -10 0
          25.5 -9 0 25.5 -8 0
          25.5 -7 0 25.5 -6 0
          25.5 -5 0 25.5 -4 0
          25.5 -3 0 25.5 -2 0
          25.5 -0.99999999998 0 25.5 1.6067591702e-11 0
          25.5 1 0 25.5 2 0
          25.5 3 0 25.5 4 0
          25.5 5 0 25.5 6 0
          25.5 7 0 25.5 8 0
          25.5 9 0 25.5 10 0
          25.5 11 0 25.5 12 0
          26.5 -12 0 26.5 -11 0
          26.5 -10 0 26.5 -9 0
          26.5 -8 0 26.5 -7 0
          26.5 -6 0 26.5 -5 0
          26.5 -4 0 26.5 -3 0
          26.5 -2 0 26.5 -0.99999999998 0
          26.5 1.4996226483e-11 0 26.5 1 0
          26.5 2 0 26.5 3 0
          26.5 4 0 26.5 5 0
          26.5 6 0 26.5 7 0
          26.5 8 0 26.5 9 0
          26.5 10 0 26.5 11 0
          26.5 12 0 27.5 -12 0
          27.5 -11 0 27.5 -10 0
          27.5 -9 0 27.5 -8 0
          27.5 -7 0 27.5 -6 0
          27.5 -5 0 27.5 -4 0
          27.5 -3 0 27.5 -2 0
          27.5 -0.99999999998 0 27.5 1.3925305353e-11 0
          27.5 1 0 27.5 2 0
          27.5 3 0 27.5 4 0
          27.5 5 0 27.5 6 0
          27.5 7 0 27.5 8 0
          27.5 9 0 27.5 10 0
          27.5 11 0 27.5 12 0
          28.5 -12 0 28.5 -11 0
          28.5 -10 0 28.5 -9 0
          28.5 -8 0 28.5 -7 0
          28.5 -6 0 28.5 -5 0
          28.5 -4 0 28.5 -3 0
          28.5 -2 0 28.5 -0.99999999999 0
          28.5 1.2854717291e-11 0 28.5 1 0
          28.5 2 0 28.5 3 0
          28.5 4 0 28.5 5 0
          28.5 6 0 28.5 7 0
          28.5 8 0 28.5 9 0
          28.5 10 0 28.5 11 0
          28.5 12 0 29.5 -12 0
          29.5 -11 0 29.5 -10 0
          29.5 -9 0 29.5 -8 0
          29.5 -7 0 29.5 -6 0
          29.5 -5 0 29.5 -4 0
          29.5 -3 0 29.5 -2 0
          29.5 -0.99999999999 0 29.5 1.178324105e-11 0
          29.5 1 0 29.5 2 0
          29.5 3 0 29.5 4 0
          29.5 5 0 29.5 6 0
          29.5 7 0 29.5 8 0
          29.5 9 0 29.5 10 0
          29.5 11 0 29.5 12 0
          30.5 -12 0 30.5 -11 0
          30.5 -10 0 30.5 -9 0
          30.5 -8 0 30.5 -7 0
          30.5 -6 0 30.5 -5 0
          30.5 -4 0 30.5 -3 0
          30.5 -2 0 30.5 -0.99999999999 0
          30.5 1.0711320719e-11 0 30.5 1 0
          30.5 2 0 30.5 3 0
          30.5 4 0 30.5 5 0
          30.5 6 0 30.5 7 0
          30.5 8 0 30.5 9 0
          30.5 10 0 30.5 11 0
          30.5 12 0 31.5 -12 0
          31.5 -11 0 31.5 -10 0
          31.5 -9 0 31.5 -8 0
          31.5 -7 0 31.5 -6 0
          31.5 -5 0 31.5 -4 0
          31.5 -3 0 31.5 -2 0
          31.5 -0.99999999999 0 31.5 9.6399555005e-12 0
          31.5 1 0 31.5 2 0
          31.5 3 0 31.5 4 0
          31.5 5 0 31.5 6 0
          31.5 7 0 31.5 8 0
          31.5 9 0 31.5 10 0
          31.5 11 0 31.5 12 0
          32.5 -12 0 32.5 -11 0
          32.5 -10 0 32.5 -9 0
          32.5 -8 0 32.5 -7 0
          32.5 -6 0 32.5 -5 0
          32.5 -4 0 32.5 -3 0
          32.5 -2 0 32.5 -0.99999999999 0
          32.5 8.5687013041e-12 0 32.5 1 0
          32.5 2 0 32.5 3 0
          32.5 4 0 32.5 5 0
          32.5 6 0 32.5 7 0
          32.5 8 0 32.5 9 0
          32.5 10 0 32.5 11 0
          32.5 12 0 33.5 -12 0
          33.5 -11 0 33.5 -10 0
          33.5 -9 0 33.5 -8 0
          33.5 -7 0 33.5 -6 0
          33.5 -5 0 33.5 -4 0
          33.5 -3 0 33.5 -2 0
          33.5 -0.99999999999 0 33.5 7.4975581299e-12 0
          33.5 1 0 33.5 2 0
          33.5 3 0 33.5 4 0
          33.5 5 0 33.5 6 0
          33.5 7 0 33.5 8 0
          33.5 9 0 33.5 10 0
          33.5 11 0 33.5 12 0
          34.5 -12 0 34.5 -11 0
          34.5 -10 0 34.5 -9 0
          34.5 -8 0 34.5 -7 0
          34.5 -6 0 34.5 -5 0
          34.5 -4 0 34.5 -3 0
          34.5 -2 0 34.5 -0.99999999999 0
          34.5 6.426525978e-12 0 34.5 1 0
          34.5 2 0 34.5 3 0
          34.5 4 0 34.5 5 0
          34.5 6 0 34.5 7 0
          34.5 8 0 34.5 9 0
          34.5 10 0 34.5 11 0
          34.5 12 0 35.5 -12 0
          35.5 -11 0 35.5 -10 0
          35.5 -9 0 35.5 -8 0
          35.5 -7 0 35.5 -6 0
          35.5 -5 0 35.5 -4 0
          35.5 -3 0 35.5 -2 0
          35.5 -0.99999999999 0 35.5 5.3557158708e-12 0
          35.5 1 0 35.5 2 0
          35.5 3 0 35.5 4 0
          35.5 5 0 35.5 6 0
          35.5 7 0 35.5 8 0
          35.5 9 0 35.5 10 0
          35.5 11 0 35.5 12 0
          36.5 -12 0 36.5 -11 0
          36.5 -10 0 36.5 -9 0
          36.5 -8 0 36.5 -7 0
          36.5 -6 0 36.5 -5 0
          36.5 -4 0 36.5 -3 0
          36.5 -2 0 36.5 -0.99999999999 0
          36.5 4.2845726966e-12 0 36.5 1 0
          36.5 2 0 36.5 3 0
          36.5 4 0 36.5 5 0
          36.5 6 0 36.5 7 0
          36.5 8 0 36.5 9 0
          36.5 10 0 36.5 11 0
          36.5 12 0 37.5 -12 0
          37.5 -11 0 37.5 -10 0
          37.5 -9 0 37.5 -8 0
          37.5 -7 0 37.5 -6 0
          37.5 -5 0 37.5 -4 0
          37.5 -3 0 37.5 -2 0
          37.5 -1 0 37.5 3.2135405448e-12 0
          37.5 1 0 37.5 2 0
          37.5 3 0 37.5 4 0
          37.5 5 0 37.5 6 0
          37.5 7 0 37.5 8 0
          37.5 9 0 37.5 10 0
          37.5 11 0 37.5 12 0
          38.5 -12 0 38.5 -11 0
          38.5 -10 0 38.5 -9 0
          38.5 -8 0 38.5 -7 0
          38.5 -6 0 38.5 -5 0
          38.5 -4 0 38.5 -3 0