<?xml version="1.0"?>
<VTKFile type="UnstructuredGrid" version="0.1" byte_order="LittleEndian" header_type="UInt32" compressor="vtkZLibDataCompressor">
  <UnstructuredGrid>
    <Piece NumberOfPoints="1875" NumberOfCells="0">
      <PointData>
        <DataArray type="Float64" Name="Displacement" NumberOfComponents="2" ComponentName0="d_x" ComponentName1="d_y" format="ascii" RangeMin="0.00099992752075" RangeMax="1.4748052014">
          0.32300001383 -1.4390001297 0.29600000381 -1.4390001297 0.26800000668 -1.4390001297
          0.24000000954 -1.4390001297 0.21299999952 -1.4390001297 0.18599998951 -1.4390001297
          0.1589999795 -1.4390001297 0.13300001621 -1.4390001297 0.1060000062 -1.4390001297
          0.078999996185 -1.4390001297 0.052999973297 -1.4389998913 0.026000022888 -1.4389998913
          0 -1.4390000105 -0.025999993086 -1.4390000105 -0.053000003099 -1.4390000105
          -0.078999996185 -1.4390000105 -0.1060000062 -1.4389998913 -0.13299998641 -1.4389998913
          -0.1590000093 -1.4390001297 -0.18599998951 -1.4390001297 -0.21299999952 -1.4390001297
          -0.24000000954 -1.4390001297 -0.26800000668 -1.4390001297 -0.29600000381 -1.4390001297
          -0.32299999893 -1.4390001297 0.32299995422 -1.4110002518 0.29499995708 -1.4110002518
          0.26800000668 -1.4110002518 0.24000000954 -1.4110002518 0.21300005913 -1.4110002518
          0.18599998951 -1.4110002518 0.1590000391 -1.4109997749 0.13300001621 -1.4109997749
          0.10599994659 -1.4109997749 0.078999996185 -1.4109997749 0.052999973297 -1.4110000134
          0.026000022888 -1.4110000134 0 -1.4110000134 -0.026000022888 -1.4110000134
          -0.052999973297 -1.4110000134 -0.078999996185 -1.4110000134 -0.10599994659 -1.4110000134
          -0.13300001621 -1.4110000134 -0.1590000391 -1.4109997749 -0.18599998951 -1.4109997749
          -0.21300005913 -1.4109997749 -0.24000000954 -1.4109997749 -0.26800000668 -1.4110002518
          -0.29499995708 -1.4110002518 -0.32299995422 -1.4110002518 0.32299995422 -1.3830003738
          0.29500007629 -1.3830003738 0.26799988747 -1.3830003738 0.24000000954 -1.3830003738
          0.21300005913 -1.3819999695 0.18600010872 -1.3819999695 0.15899991989 -1.3819999695
          0.13199996948 -1.3819999695 0.10599994659 -1.3819999695 0.078999996185 -1.3819999695
          0.052999973297 -1.3819999695 0.026000022888 -1.3819999695 0 -1.3819999695
          -0.026000022888 -1.3819999993 -0.052999973297 -1.3820000291 -0.078999996185 -1.3819999695
          -0.10599994659 -1.3819999695 -0.13199996948 -1.3819999695 -0.15899991989 -1.3819999695
          -0.18600010872 -1.3819999695 -0.21300005913 -1.3819999695 -0.24000000954 -1.382999897
          -0.26799988747 -1.3830003738 -0.29500007629 -1.3830003738 -0.32299995422 -1.3830003738
          0.32299995422 -1.3549995422 0.29500007629 -1.3540000916 0.26699995995 -1.3540000916
          0.24000000954 -1.3540000916 0.21300005913 -1.3540000916 0.18600010872 -1.3540000916
          0.15899991989 -1.3540000916 0.13199996948 -1.3540000916 0.10599994659 -1.3540000916
          0.078999996185 -1.3540000916 0.052999973297 -1.3540000916 0.026000022888 -1.3540000916
          0 -1.3539999723 -0.026000022888 -1.3540000021 -0.052999973297 -1.3539999723
          -0.078999996185 -1.3539999723 -0.10599994659 -1.3540000916 -0.13199996948 -1.3540000916
          -0.15899991989 -1.3540000916 -0.18600010872 -1.3540000916 -0.21300005913 -1.3540000916
          -0.24000000954 -1.3540000916 -0.26699995995 -1.3540000916 -0.29500007629 -1.3540000916
          -0.32299995422 -1.3549995422 0.3220000267 -1.3269996643 0.29500007629 -1.3260002136
          0.26700019836 -1.3260002136 0.23999977112 -1.3260002136 0.21299982071 -1.3260002136
          0.1859998703 -1.3260002136 0.15899991989 -1.3260002136 0.13199996948 -1.3260002136
          0.10599994659 -1.3260002136 0.078999996185 -1.3260002136 0.052999973297 -1.3259999752
          0.026000022888 -1.3259999752 0 -1.3259999752 -0.026000022888 -1.326000005
          -0.052999973297 -1.3259999752 -0.078999996185 -1.3259999752 -0.10599994659 -1.3259999752
          -0.13199996948 -1.3259999752 -0.15899991989 -1.3260002136 -0.1859998703 -1.3260002136
          -0.21299982071 -1.3260002136 -0.23999977112 -1.3260002136 -0.26700019836 -1.3260002136
          -0.29500007629 -1.3260002136 -0.3220000267 -1.3269996643 0.3220000267 -1.2980003357
          0.29400014877 -1.2980003357 0.26599979401 -1.2980003357 0.2389998436 -1.2980003357
          0.21199989319 -1.2980003357 0.18499994278 -1.2980003357 0.15799999237 -1.2979998589
          0.13199996948 -1.2979998589 0.10500001907 -1.2969999313 0.078999996185 -1.2969999313
          0.052999973297 -1.2969999313 0.026000022888 -1.2969999313 0 -1.2970000505
          -0.026000022888 -1.2969999909 -0.052999973297 -1.2969999909 -0.078999996185 -1.2970000505
          -0.10500001907 -1.2969999313 -0.13199996948 -1.2980000973 -0.15799999237 -1.2979998589
          -0.18499994278 -1.2979998589 -0.21199989319 -1.2979998589 -0.2389998436 -1.2979998589
          -0.26599979401 -1.2980003357 -0.29400014877 -1.2980003357 -0.3220000267 -1.2980003357
          0.32100009918 -1.2700004578 0.29300022125 -1.2700004578 0.26599979401 -1.2700004578
          0.2389998436 -1.2700004578 0.21199989319 -1.2700004578 0.18499994278 -1.2700004578
          0.15799999237 -1.2690000534 0.13199996948 -1.2690000534 0.10500001907 -1.2690000534
          0.078999996185 -1.2690000534 0.052000045776 -1.2690000534 0.026000022888 -1.2690000534
          0 -1.2690000534 -0.026000022888 -1.2689999938 -0.052000045776 -1.2689999938
          -0.078999996185 -1.2690000534 -0.10500001907 -1.2690000534 -0.13199996948 -1.2690000534
          -0.15799999237 -1.2690000534 -0.18499994278 -1.2699999809 -0.21199989319 -1.2699999809
          -0.2389998436 -1.2699999809 -0.26599979401 -1.2700004578 -0.29300022125 -1.2700004578
          -0.32100009918 -1.2700004578 0.32000017166 -1.2430000305 0.29300022125 -1.2419996262
          0.26499986649 -1.2419996262 0.23799991608 -1.2419996262 0.21099996567 -1.2419996262
          0.18400001526 -1.2419996262 0.15799999237 -1.2410001755 0.13100004196 -1.2410001755
          0.10500001907 -1.2410001755 0.078999996185 -1.2410001755 0.052000045776 -1.2409999371
          0.026000022888 -1.2409999371 0 -1.2410000563 -0.026000022888 -1.2409999967
          -0.052000045776 -1.2409999967 -0.078999996185 -1.2410000563 -0.10500001907 -1.2409999371
          -0.13100004196 -1.2409999371 -0.15799999237 -1.2410001755 -0.18400001526 -1.242000103
          -0.21099996567 -1.242000103 -0.23799991608 -1.242000103 -0.26499986649 -1.2419996262
          -0.29300022125 -1.2419996262 -0.32000017166 -1.2430000305 0.31900024414 -1.2150001526
          0.29199981689 -1.2139997482 0.26399993896 -1.2139997482 0.23700046539 -1.2139997482
          0.2110004425 -1.2139997482 0.18400001526 -1.2139997482 0.15699958801 -1.2129998207
          0.13099956512 -1.2129998207 0.10499954224 -1.2129998207 0.078000068665 -1.2129998207
          0.052000045776 -1.2130000591 0.026000022888 -1.2130000591 0 -1.2130000591
          -0.026000022888 -1.2129999995 -0.052000045776 -1.2129999995 -0.078000068665 -1.2130000591
          -0.10499954224 -1.2130000591 -0.13099956512 -1.2130000591 -0.15699958801 -1.2129998207
          -0.18400001526 -1.2140002251 -0.2110004425 -1.2140002251 -0.23700046539 -1.2140002251
          -0.26399993896 -1.2139997482 -0.29199981689 -1.2139997482 -0.31900024414 -1.2150001526
          0.31799983978 -1.1870002747 0.29100036621 -1.1870002747 0.26399993896 -1.1859998703
          0.23700046539 -1.1859998703 0.21000003815 -1.1859998703 0.1829996109 -1.1859998703
          0.15699958801 -1.1849999428 0.13000011444 -1.1849999428 0.10400009155 -1.1849999428
          0.078000068665 -1.1849999428 0.052000045776 -1.1849999428 0.026000022888 -1.1849999428
          0 -1.1849999428 -0.026000022888 -1.1850000024 -0.052000045776 -1.1850000024
          -0.078000068665 -1.1849999428 -0.10400009155 -1.1849999428 -0.13000011444 -1.1849999428
          -0.15699958801 -1.1849999428 -0.1829996109 -1.1859998703 -0.21000003815 -1.1859998703
          -0.23700046539 -1.1859998703 -0.26399993896 -1.1859998703 -0.29100036621 -1.1870002747
          -0.31799983978 -1.1870002747 0.3170003891 -1.1590003967 0.28999996185 -1.1590003967
          0.26299953461 -1.1590003967 0.23600006104 -1.1579999924 0.20899963379 -1.1579999924
          0.1829996109 -1.1579999924 0.15600013733 -1.1579999924 0.13000011444 -1.1570000648
          0.10400009155 -1.1570000648 0.078000068665 -1.1570000648 0.052000045776 -1.1570000648
          0.026000022888 -1.1570000648 0 -1.1569999456 -0.026000022888 -1.1570000052
          -0.052000045776 -1.1570000052 -0.078000068665 -1.1569999456 -0.10400009155 -1.1570000648
          -0.13000011444 -1.1570000648 -0.15600013733 -1.1579999924 -0.1829996109 -1.1579999924
          -0.20899963379 -1.1579999924 -0.23600006104 -1.1579999924 -0.26299953461 -1.1590003967
          -0.28999996185 -1.1590003967 -0.3170003891 -1.1590003967 0.31599998474 -1.1319999695
          0.2889995575 -1.1309995651 0.26200008392 -1.1309995651 0.23499965668 -1.1309995651
          0.20800018311 -1.1300001144 0.18200016022 -1.1300001144 0.15600013733 -1.1300001144
          0.12899971008 -1.1300001144 0.10299968719 -1.1300001144 0.076999664307 -1.1290001869
          0.052000045776 -1.1289999485 0.026000022888 -1.1289999485 0 -1.1289999485
          -0.026000022888 -1.1289999932 -0.052000045776 -1.1290000081 -0.076999664307 -1.1289999485
          -0.10299968719 -1.1300001144 -0.12899971008 -1.1300001144 -0.15600013733 -1.1300001144
          -0.18200016022 -1.1300001144 -0.20800018311 -1.1300001144 -0.23499965668 -1.131000042
          -0.26200008392 -1.1309995651 -0.2889995575 -1.1309995651 -0.31599998474 -1.1319999695
          0.3140001297 -1.1040000916 0.28699970245 -1.1040000916 0.26000022888 -1.1029996872
          0.23400020599 -1.1029996872 0.20699977875 -1.1029996872 0.18099975586 -1.1020002365
          0.15499973297 -1.1020002365 0.12899971008 -1.1020002365 0.10299968719 -1.1020002365
          0.076999664307 -1.1020002365 0.050999641418 -1.1019999981 0.026000022888 -1.1019999981
          0 -1.1019999981 -0.026000022888 -1.1019999981 -0.050999641418 -1.1019999981
          -0.076999664307 -1.1019999981 -0.10299968719 -1.1019999981 -0.12899971008 -1.1019999981
          -0.15499973297 -1.1020002365 -0.18099975586 -1.1020002365 -0.20699977875 -1.103000164
          -0.23400020599 -1.103000164 -0.26000022888 -1.1029996872 -0.28699970245 -1.1040000916
          -0.3140001297 -1.1040000916 0.31299972534 -1.0769996643 0.28600025177 -1.0760002136
          0.25899982452 -1.0760002136 0.23299980164 -1.0760002136 0.20600032806 -1.0749998093
          0.18000030518 -1.0749998093 0.15400028229 -1.0749998093 0.1280002594 -1.0739998817
          0.10200023651 -1.0739998817 0.076999664307 -1.0739998817 0.050999641418 -1.0739998817
          0.026000022888 -1.0739998817 0 -1.074000001 -0.026000022888 -1.074000001
          -0.050999641418 -1.074000001 -0.076999664307 -1.074000001 -0.10200023651 -1.0739998817
          -0.1280002594 -1.0739998817 -0.15400028229 -1.0749998093 -0.18000030518 -1.0749998093
          -0.20600032806 -1.0749998093 -0.23299980164 -1.0760002136 -0.25899982452 -1.0760002136
          -0.28600025177 -1.0760002136 -0.31299972534 -1.0769996643 0.3109998703 -1.0500001907
          0.28400039673 -1.0489997864 0.25800037384 -1.0489997864 0.23099994659 -1.0480003357
          0.20499992371 -1.0480003357 0.17899990082 -1.0480003357 0.15299987793 -1.0469999313
          0.1280002594 -1.0469999313 0.10200023651 -1.0469999313 0.076000213623 -1.0469999313
          0.050999641418 -1.0469999313 0.02499961853 -1.0469999313 0 -1.0470000505
          -0.02499961853 -1.0469999984 -0.050999641418 -1.0469999909 -0.076000213623 -1.0470000505
          -0.10200023651 -1.0469999313 -0.1280002594 -1.0469999313 -0.15299987793 -1.0469999313
          -0.17899990082 -1.0479998589 -0.20499992371 -1.0479998589 -0.23099994659 -1.0479998589
          -0.25800037384 -1.0489997864 -0.28400039673 -1.0489997864 -0.3109998703 -1.0500001907
          0.31000041962 -1.0220003128 0.28299999237 -1.0220003128 0.25599956512 -1.0220003128
          0.22999954224 -1.0209999084 0.20400047302 -1.0209999084 0.17800045013 -1.0200004578
          0.15200042725 -1.0199999809 0.12699985504 -1.0199999809 0.10099983215 -1.0199999809
          0.076000213623 -1.0190000534 0.050999641418 -1.0190000534 0.02499961853 -1.0190000534
          0 -1.0190000534 -0.02499961853 -1.0189999994 -0.050999641418 -1.0189999938
          -0.076000213623 -1.0190000534 -0.10099983215 -1.0199999809 -0.12699985504 -1.0199999809
          -0.15200042725 -1.0199999809 -0.17800045013 -1.0199999809 -0.20400047302 -1.0209999084
          -0.22999954224 -1.0209999084 -0.25599956512 -1.0220003128 -0.28299999237 -1.0220003128
          -0.31000041962 -1.0220003128 0.30800056458 -0.99600028992 0.28100013733 -0.99499988556
          0.25499916077 -0.99499988556 0.22900009155 -0.99400043488 0.20299911499 -0.99400043488
          0.17700004578 -0.99300003052 0.15200042725 -0.99300003052 0.12599945068 -0.99300003052
          0.10099983215 -0.99300003052 0.075000762939 -0.992000103 0.049999237061 -0.992000103
          0.02499961853 -0.99199998379 0 -0.99199998379 -0.02499961853 -0.99199999962
          -0.049999237061 -0.99199998379 -0.075000762939 -0.992000103 -0.10099983215 -0.99300003052
          -0.12599945068 -0.99300003052 -0.15200042725 -0.99300003052 -0.17700004578 -0.99300003052
          -0.20299911499 -0.99399995804 -0.22900009155 -0.99400043488 -0.25499916077 -0.99499988556
          -0.28100013733 -0.99499988556 -0.30800056458 -0.99600028992 0.30599975586 -0.96899986267
          0.27899932861 -0.96800041199 0.2530002594 -0.96800041199 0.22699928284 -0.96700000763
          0.20199966431 -0.96700000763 0.17600059509 -0.96600008011 0.15099906921 -0.96600008011
          0.125 -0.96600008011 0.10000038147 -0.96600008011 0.075000762939 -0.96499991417
          0.049999237061 -0.96499991417 0.02499961853 -0.96500003338 0 -0.96499997377
          -0.02499961853 -0.96499999985 -0.049999237061 -0.96500003338 -0.075000762939 -0.96499991417
          -0.10000038147 -0.96600008011 -0.125 -0.96600008011 -0.15099906921 -0.96600008011
          -0.17600059509 -0.96600008011 -0.20199966431 -0.96700000763 -0.22699928284 -0.96700000763
          -0.2530002594 -0.96800041199 -0.27899932861 -0.96800041199 -0.30599975586 -0.96899986267
          0.30400085449 -0.9420003891 0.27799987793 -0.9420003891 0.25200080872 -0.94099998474
          0.22599983215 -0.93999958038 0.20000076294 -0.93999958038 0.17499923706 -0.94000005722
          0.14900016785 -0.9390001297 0.12400054932 -0.9390001297 0.099000930786 -0.9390001297
          0.073999404907 -0.93899989128 0.049999237061 -0.93799996376 0.02499961853 -0.93799996376
          0 -0.93800002337 -0.02499961853 -0.93800000101 -0.049999237061 -0.93799996376
          -0.073999404907 -0.93899989128 -0.099000930786 -0.93899989128 -0.12400054932 -0.9390001297
          -0.14900016785 -0.9390001297 -0.17499923706 -0.94000005722 -0.20000076294 -0.94000005722
          -0.22599983215 -0.93999958038 -0.25200080872 -0.94099998474 -0.27799987793 -0.9420003891
          -0.30400085449 -0.9420003891 0.30200004578 -0.91600036621 0.27499961853 -0.91499996185
          0.25 -0.9139995575 0.22400093079 -0.9139995575 0.19899940491 -0.91300010681
          0.17300033569 -0.91300010681 0.14800071716 -0.91300010681 0.12299919128 -0.91200017929
          0.099000930786 -0.91200017929 0.073999404907 -0.91199994087 0.048999786377 -0.91199994087
          0.02499961853 -0.91199994087 0 -0.91200000048 -0.02499961853 -0.91200000048
          -0.048999786377 -0.91199994087 -0.073999404907 -0.91199994087 -0.099000930786 -0.91199994087
          -0.12299919128 -0.91200017929 -0.14800071716 -0.91300010681 -0.17300033569 -0.91300010681
          -0.19899940491 -0.91300010681 -0.22400093079 -0.9139995575 -0.25 -0.9139995575
          -0.27499961853 -0.91499996185 -0.30200004578 -0.91600036621 0.29899978638 -0.88899993896
          0.27300071716 -0.88899993896 0.24799919128 -0.88799953461 0.22200012207 -0.88799953461
          0.19700050354 -0.88700008392 0.17200088501 -0.88700008392 0.14699935913 -0.8860001564
          0.1219997406 -0.8860001564 0.097999572754 -0.8860001564 0.072999954224 -0.88499999046
          0.048999786377 -0.88499999046 0.024000167847 -0.88499999046 0 -0.88499999046
          -0.024000167847 -0.88499999791 -0.048999786377 -0.88499999046 -0.072999954224 -0.88499999046
          -0.097999572754 -0.88599991798 -0.1219997406 -0.8860001564 -0.14699935913 -0.8860001564
          -0.17200088501 -0.88700008392 -0.19700050354 -0.88700008392 -0.22200012207 -0.88799953461
          -0.24799919128 -0.88799953461 -0.27300071716 -0.88899993896 -0.29899978638 -0.88899993896
          0.29700088501 -0.86299991608 0.27099990845 -0.86299991608 0.24600028992 -0.86200046539
          0.22100067139 -0.86100006104 0.19599914551 -0.86100006104 0.17099952698 -0.86000013351
          0.14599990845 -0.86000013351 0.12100028992 -0.86000013351 0.09700012207 -0.85900020599
          0.072999954224 -0.85899996758 0.048000335693 -0.85899996758 0.024000167847 -0.85899996758
          0 -0.85900002718 -0.024000167847 -0.85899999738 -0.048000335693 -0.85899996758
          -0.072999954224 -0.85899996758 -0.09700012207 -0.85899996758 -0.12100028992 -0.86000013351
          -0.14599990845 -0.86000013351 -0.17099952698 -0.86000013351 -0.19599914551 -0.86100006104
          -0.22100067139 -0.86100006104 -0.24600028992 -0.86200046539 -0.27099990845 -0.86299991608
          -0.29700088501 -0.86299991608 0.29400062561 -0.83800029755 0.26899909973 -0.83699989319
          0.2439994812 -0.8360004425 0.21899986267 -0.8360004425 0.19400024414 -0.83500003815
          0.16900062561 -0.83500003815 0.14500045776 -0.83400011063 0.12000083923 -0.83400011063
          0.096000671387 -0.83300018311 0.07200050354 -0.83299994469 0.048000335693 -0.83299994469
          0.024000167847 -0.83299994469 0 -0.83300000429 -0.024000167847 -0.83300000429
          -0.048000335693 -0.83299994469 -0.07200050354 -0.83299994469 -0.096000671387 -0.83299994469
          -0.12000083923 -0.83400011063 -0.14500045776 -0.83400011063 -0.16900062561 -0.83500003815
          -0.19400024414 -0.83500003815 -0.21899986267 -0.8360004425 -0.2439994812 -0.8360004425
          -0.26899909973 -0.83699989319 -0.29400062561 -0.83800029755 0.29199981689 -0.81200027466
          0.26600074768 -0.8109998703 0.2409992218 -0.81000041962 0.21699905396 -0.81000041962
          0.19199943542 -0.80900001526 0.16799926758 -0.80900001526 0.14299964905 -0.80800008774
          0.1189994812 -0.80800008774 0.094999313354 -0.80800008774 0.070999145508 -0.8069999218
          0.048000335693 -0.8069999218 0.024000167847 -0.80700004101 0 -0.8069999814
          -0.024000167847 -0.8069999963 -0.048000335693 -0.80700004101 -0.070999145508 -0.8069999218
          -0.094999313354 -0.80800008774 -0.1189994812 -0.80800008774 -0.14299964905 -0.80800008774
          -0.16799926758 -0.80900001526 -0.19199943542 -0.80900001526 -0.21699905396 -0.81000041962
          -0.2409992218 -0.81000041962 -0.26600074768 -0.8109998703 -0.29199981689 -0.81200027466
          0.2889995575 -0.78699970245 0.26399993896 -0.78600025177 0.23900032043 -0.78499984741
          0.21500015259 -0.78400039673 0.19000053406 -0.78400039673 0.16600036621 -0.78299999237
          0.14200019836 -0.78299999237 0.11800003052 -0.78200006485 0.093999862671 -0.78200006485
          0.070999145508 -0.78200006485 0.04700088501 -0.78200006485 0.024000167847 -0.78199994564
          0 -0.78100001812 -0.024000167847 -0.78200000525 -0.04700088501 -0.78199994564
          -0.070999145508 -0.78200006485 -0.093999862671 -0.78200006485 -0.11800003052 -0.78200006485
          -0.14200019836 -0.78299999237 -0.16600036621 -0.78299999237 -0.19000053406 -0.78399991989
          -0.21500015259 -0.78400039673 -0.23900032043 -0.78499984741 -0.26399993896 -0.78600025177
          -0.2889995575 -0.78699970245 0.2859992981 -0.76099967957 0.26099967957 -0.76099967957
          0.23699951172 -0.76000022888 0.21199989319 -0.75899982452 0.18799972534 -0.75800037384
          0.1639995575 -0.757999897 0.14100074768 -0.75699996948 0.11700057983 -0.75699996948
          0.093000411987 -0.75699996948 0.069999694824 -0.75600004196 0.04700088501 -0.75600004196
          0.023000717163 -0.75600004196 0 -0.75599998236 -0.023000717163 -0.75599999726
          -0.04700088501 -0.75600004196 -0.069999694824 -0.75600004196 -0.093000411987 -0.75699996948
          -0.11700057983 -0.75699996948 -0.14100074768 -0.75699996948 -0.1639995575 -0.757999897
          -0.18799972534 -0.757999897 -0.21199989319 -0.75899982452 -0.23699951172 -0.76000022888
          -0.26099967957 -0.76099967957 -0.2859992981 -0.76099967957 0.28300094604 -0.73600006104
          0.25799942017 -0.73600006104 0.23399925232 -0.73499965668 0.20999908447 -0.73400020599
          0.18600082397 -0.73299980164 0.16300010681 -0.73299980164 0.13899993896 -0.73199987411
          0.1159992218 -0.73199987411 0.091999053955 -0.73199987411 0.069000244141 -0.73099994659
          0.045999526978 -0.73099994659 0.023000717163 -0.73099994659 0 -0.7310000062
          -0.023000717163 -0.7310000062 -0.045999526978 -0.73099994659 -0.069000244141 -0.73099994659
          -0.091999053955 -0.73200011253 -0.1159992218 -0.73199987411 -0.13899993896 -0.73199987411
          -0.16300010681 -0.73299980164 -0.18600082397 -0.73299980164 -0.20999908447 -0.73400020599
          -0.23399925232 -0.73499965668 -0.25799942017 -0.73600006104 -0.28300094604 -0.73600006104
          0.28000068665 -0.71199989319 0.2560005188 -0.7110004425 0.23200035095 -0.71000003815
          0.20800018311 -0.70899963379 0.18400001526 -0.70899963379 0.1609992981 -0.70800018311
          0.13800048828 -0.70800018311 0.11400032043 -0.70699977875 0.090999603271 -0.70699977875
          0.068000793457 -0.70600008965 0.045999526978 -0.70600008965 0.023000717163 -0.70599997044
          0 -0.70599997044 -0.023000717163 -0.70600000024 -0.045999526978 -0.70599997044
          -0.068000793457 -0.70600008965 -0.090999603271 -0.70700001717 -0.11400032043 -0.70699977875
          -0.13800048828 -0.70800018311 -0.1609992981 -0.70800018311 -0.18400001526 -0.70900011063
          -0.20800018311 -0.70899963379 -0.23200035095 -0.71000003815 -0.2560005188 -0.7110004425
          -0.28000068665 -0.71199989319 0.27700042725 -0.68700027466 0.2530002594 -0.6859998703
          0.22900009155 -0.6859998703 0.20499992371 -0.68500041962 0.18199920654 -0.68400001526
          0.15900039673 -0.68300008774 0.13599967957 -0.68300008774 0.11300086975 -0.68300008774
          0.090000152588 -0.68200016022 0.068000793457 -0.6819999218 0.045000076294 -0.6819999218
          0.023000717163 -0.68200004101 0 -0.68099999428 -0.023000717163 -0.68200001121
          -0.045000076294 -0.68200004101 -0.068000793457 -0.6819999218 -0.090000152588 -0.6819999218
          -0.11300086975 -0.68300008774 -0.13599967957 -0.68300008774 -0.15900039673 -0.68300008774
          -0.18199920654 -0.68400001526 -0.20499992371 -0.68500041962 -0.22900009155 -0.6859998703
          -0.2530002594 -0.6859998703 -0.27700042725 -0.68700027466 0.27300071716 -0.66300010681
          0.25 -0.66199970245 0.22599983215 -0.66100025177 0.20299911499 -0.66100025177
          0.18000030518 -0.65999984741 0.15699958801 -0.65899991989 0.1340007782 -0.65899991989
          0.11199951172 -0.65799999237 0.089000701904 -0.65799999237 0.066999435425 -0.65799999237
          0.045000076294 -0.65700006485 0.021999359131 -0.65699994564 0 -0.65700000525
          -0.021999359131 -0.65700000525 -0.045000076294 -0.65699994564 -0.066999435425 -0.65799999237
          -0.089000701904 -0.65799999237 -0.11199951172 -0.65799999237 -0.1340007782 -0.65899991989
          -0.15699958801 -0.65899991989 -0.18000030518 -0.65999984741 -0.20299911499 -0.66100025177
          -0.22599983215 -0.66100025177 -0.25 -0.66199970245 -0.27300071716 -0.66300010681
          0.27000045776 -0.63899993896 0.24600028992 -0.63799953461 0.22299957275 -0.63700008392
          0.20000076294 -0.63700008392 0.17799949646 -0.63599967957 0.15500068665 -0.63500022888
          0.13299942017 -0.63500022888 0.11000061035 -0.63399982452 0.087999343872 -0.63399982452
          0.065999984741 -0.632999897 0.04400062561 -0.632999897 0.021999359131 -0.63300001621
          0 -0.63300001621 -0.021999359131 -0.63299998641 -0.04400062561 -0.63300001621
          -0.065999984741 -0.632999897 -0.087999343872 -0.63400006294 -0.11000061035 -0.63399982452
          -0.13299942017 -0.63500022888 -0.15500068665 -0.63500022888 -0.17799949646 -0.6360001564
          -0.20000076294 -0.63700008392 -0.22299957275 -0.63700008392 -0.24600028992 -0.63799953461
          -0.27000045776 -0.63899993896 0.26600074768 -0.61600017548 0.24300003052 -0.61499977112
          0.21999931335 -0.61400032043 0.19799995422 -0.61299991608 0.17499923706 -0.61200046539
          0.15299987793 -0.61199998856 0.1310005188 -0.61100006104 0.10899925232 -0.61000013351
          0.086999893188 -0.61000013351 0.065000534058 -0.6099998951 0.042999267578 -0.6099998951
          0.021999359131 -0.60899996758 0 -0.60900002718 -0.021999359131 -0.60899999738
          -0.042999267578 -0.61000001431 -0.065000534058 -0.6099998951 -0.086999893188 -0.6099998951
          -0.10899925232 -0.61000013351 -0.1310005188 -0.61100006104 -0.15299987793 -0.61199998856
          -0.17499923706 -0.61199998856 -0.19799995422 -0.61299991608 -0.21999931335 -0.61400032043
          -0.24300003052 -0.61499977112 -0.26600074768 -0.61600017548 0.26300048828 -0.59300041199
          0.24000167847 -0.59200000763 0.21699905396 -0.59099960327 0.19499969482 -0.59000015259
          0.17300033569 -0.58899974823 0.15100097656 -0.58799982071 0.12900161743 -0.58799982071
          0.1069984436 -0.58699989319 0.085998535156 -0.58699989319 0.063999176025 -0.58599996567
          0.042999267578 -0.58599996567 0.020999908447 -0.58599996567 0 -0.58600002527
          -0.020999908447 -0.58599999547 -0.042999267578 -0.58599996567 -0.063999176025 -0.58599996567
          -0.085998535156 -0.58699989319 -0.1069984436 -0.58699989319 -0.12900161743 -0.58799982071
          -0.15100097656 -0.58799982071 -0.17300033569 -0.58900022507 -0.19499969482 -0.59000015259
          -0.21699905396 -0.59099960327 -0.24000167847 -0.59200000763 -0.26300048828 -0.59300041199
          0.25899887085 -0.56999969482 0.23600006104 -0.56900024414 0.2140007019 -0.56799983978
          0.19200134277 -0.5670003891 0.16999816895 -0.56599998474 0.1489982605 -0.56500005722
          0.12699890137 -0.5640001297 0.10599899292 -0.5640001297 0.083999633789 -0.56300020218
          0.062999725342 -0.56299996376 0.041999816895 -0.56299996376 0.020999908447 -0.56299996376
          0 -0.56300002337 -0.020999908447 -0.56299999356 -0.041999816895 -0.56299996376
          -0.062999725342 -0.56299996376 -0.083999633789 -0.56299996376 -0.10599899292 -0.5640001297
          -0.12699890137 -0.5640001297 -0.1489982605 -0.56500005722 -0.16999816895 -0.56599998474
          -0.19200134277 -0.5670003891 -0.2140007019 -0.56799983978 -0.23600006104 -0.56900024414
          -0.25899887085 -0.56999969482 0.25500106812 -0.54699993134 0.23300170898 -0.54599952698
          0.21099853516 -0.54500007629 0.18899917603 -0.54399967194 0.16799926758 -0.54300022125
          0.14599990845 -0.54199981689 0.125 -0.54199981689 0.10400009155 -0.54099988937
          0.083000183105 -0.54099988937 0.062000274658 -0.53999996185 0.041000366211 -0.53999996185
          0.020999908447 -0.53999996185 0 -0.54000002146 -0.020999908447 -0.53999999166
          -0.041000366211 -0.53999996185 -0.062000274658 -0.53999996185 -0.083000183105 -0.54099988937
          -0.10400009155 -0.54099988937 -0.125 -0.54199981689 -0.14599990845 -0.54199981689
          -0.16799926758 -0.54300022125 -0.18899917603 -0.54399967194 -0.21099853516 -0.54500007629
          -0.23300170898 -0.54599952698 -0.25500106812 -0.54699993134 0.25099945068 -0.52499961853
          0.22900009155 -0.52400016785 0.20700073242 -0.52299976349 0.18600082397 -0.52200031281
          0.16500091553 -0.52099990845 0.14400100708 -0.51999998093 0.12300109863 -0.51900005341
          0.10200119019 -0.51900005341 0.082000732422 -0.51800012589 0.061000823975 -0.51799988747
          0.041000366211 -0.51799988747 0.020000457764 -0.51699995995 0 -0.51700001955
          -0.020000457764 -0.51699998975 -0.041000366211 -0.51800000668 -0.061000823975 -0.51799988747
          -0.082000732422 -0.51799988747 -0.10200119019 -0.51900005341 -0.12300109863 -0.51900005341
          -0.14400100708 -0.51999998093 -0.16500091553 -0.52099990845 -0.18600082397 -0.52200031281
          -0.20700073242 -0.52299976349 -0.22900009155 -0.52400016785 -0.25099945068 -0.52499961853
          0.24700164795 -0.5030002594 0.22499847412 -0.50199985504 0.20399856567 -0.5
          0.18299865723 -0.49899959564 0.16199874878 -0.49899959564 0.14099884033 -0.49800014496
          0.12099838257 -0.49700021744 0.1010017395 -0.49700021744 0.080001831055 -0.49599981308
          0.060001373291 -0.4960000515 0.040000915527 -0.49499988556 0.020000457764 -0.49500000477
          0 -0.49500000477 -0.020000457764 -0.49500000477 -0.040000915527 -0.49500000477
          -0.060001373291 -0.4960000515 -0.080001831055 -0.4960000515 -0.1010017395 -0.49700021744
          -0.12099838257 -0.49700021744 -0.14099884033 -0.49800014496 -0.16199874878 -0.49900007248
          -0.18299865723 -0.49899959564 -0.20399856567 -0.5 -0.22499847412 -0.50199985504
          -0.24700164795 -0.5030002594 0.24200057983 -0.48099994659 0.22100067139 -0.47999954224