<?xml version="1.0"?>
<VTKFile type="UnstructuredGrid" version="0.1" byte_order="LittleEndian" header_type="UInt32" compressor="vtkZLibDataCompressor">
  <UnstructuredGrid>
    <Piece NumberOfPoints="28809" NumberOfCells="0">
      <PointData>
        <DataArray type="Float64" Name="Displacement" NumberOfComponents="2" ComponentName0="d_x" ComponentName1="d_y" format="ascii" RangeMin="0.00077729998156" RangeMax="1.4749426589">
          0.32344466448 -1.4390411377 0.31644946337 -1.439037323 0.30947053432 -1.4390325546
          0.30250746012 -1.4390287399 0.29555988312 -1.4390249252 0.2886275053 -1.4390211105
          0.28170996904 -1.4390172958 0.27480691671 -1.4390134811 0.26791799068 -1.4390096664
          0.26104289293 -1.4390058517 0.25418126583 -1.4390029907 0.24733269215 -1.438999176
          0.24049693346 -1.438996315 0.23367357254 -1.4389925003 0.22686225176 -1.4389896393
          0.2200627327 -1.4389867783 0.21327453852 -1.4389839172 0.2064974308 -1.4389810562
          0.19973099232 -1.4389781952 0.19297492504 -1.4389753342 0.18622881174 -1.4389734268
          0.179492414 -1.4389705658 0.17276531458 -1.4389681816 0.16604721546 -1.4389657974
          0.15933769941 -1.4389634132 0.15263646841 -1.4389615059 0.14594316483 -1.4389595985
          0.13925743103 -1.4389576912 0.13257902861 -1.4389557838 0.12590742111 -1.4389538765
          0.11924242973 -1.438952446 0.11258363724 -1.4389505386 0.1059307456 -1.4389491081
          0.099283337593 -1.4389476776 0.092641055584 -1.4389467239 0.086003661156 -1.4389452934
          0.079370737076 -1.4389443398 0.072741985321 -1.4389429092 0.066116988659 -1.438942194
          0.059495449066 -1.4389412403 0.05287706852 -1.4389405251 0.046261370182 -1.4389398098
          0.039648115635 -1.438939333 0.03303694725 -1.4389388561 0.026427507401 -1.4389383793
          0.019819378853 -1.4389381409 0.013212382793 -1.4389379025 0.0066059827805 -1.4389377832
          0 -1.438937664 -0.0066060125828 -1.4389377832 -0.013212352991 -1.4389379025
          -0.019819408655 -1.4389380813 -0.026427477598 -1.4389384091 -0.03303694725 -1.4389388263
          -0.039648115635 -1.4389393218 -0.046261370182 -1.4389398992 -0.052877038717 -1.4389405847
          -0.059495478868 -1.4389413595 -0.066116988659 -1.438942194 -0.072741985321 -1.4389431477
          -0.079370766878 -1.4389442205 -0.086003690958 -1.4389452934 -0.092641085386 -1.4389464855
          -0.099283307791 -1.438947916 -0.1059307158 -1.4389491081 -0.11258363724 -1.4389507771
          -0.11924242973 -1.4389522076 -0.12590745091 -1.4389538765 -0.1325789988 -1.4389557838
          -0.13925746083 -1.4389574528 -0.14594316483 -1.4389595985 -0.15263643861 -1.4389615059
          -0.15933766961 -1.4389634132 -0.16604718566 -1.4389657974 -0.17276531458 -1.4389681816
          -0.179492414 -1.4389705658 -0.18622884154 -1.43897295 -0.19297492504 -1.4389753342
          -0.19973099232 -1.4389781952 -0.2064974308 -1.4389810562 -0.21327456832 -1.4389839172
          -0.2200627327 -1.4389867783 -0.22686228156 -1.4389896393 -0.23367357254 -1.4389929771
          -0.24049693346 -1.4389958382 -0.24733269215 -1.438999176 -0.25418123603 -1.4390029907
          -0.26104289293 -1.4390058517 -0.26791800559 -1.4390096664 -0.27480690181 -1.4390134811
          -0.28170995414 -1.4390172958 -0.2886275053 -1.4390211105 -0.29555988312 -1.4390249252
          -0.30250743032 -1.4390287399 -0.30947051942 -1.4390325546 -0.31644947827 -1.439037323
          -0.32344463468 -1.4390411377 0.32342660427 -1.4320001602 0.31643188 -1.4319934845
          0.30945324898 -1.4319868088 0.302490592 -1.4319810867 0.29554343224 -1.4319753647
          0.28861141205 -1.4319696426 0.28169417381 -1.4319639206 0.27479147911 -1.4319581985
          0.26790297031 -1.4319524765 0.26102828979 -1.4319467545 0.25416696072 -1.4319419861
          0.24731880426 -1.4319372177 0.24048340321 -1.4319314957 0.23366045952 -1.4319267273
          0.22684955597 -1.4319229126 0.22005033493 -1.4319181442 0.21326255798 -1.4319133759
          0.2064858079 -1.4319095612 0.19971972704 -1.4319047928 0.19296401739 -1.4319009781
          0.18621832132 -1.4318971634 0.17948228121 -1.4318933487 0.17275559902 -1.4318900108
          0.16603779793 -1.431886673 0.15932869911 -1.4318833351 0.15262782574 -1.4318799973
          0.14593493938 -1.4318771362 0.13924956322 -1.4318742752 0.13257151842 -1.4318714142
          0.12590032816 -1.43186903 0.11923569441 -1.431866169 0.11257725954 -1.4318637848
          0.10592472553 -1.4318618774 0.099277675152 -1.4318594933 0.092635810375 -1.4318575859
          0.085998773575 -1.4318556786 0.079366266727 -1.431854248 0.072737872601 -1.4318528175
          0.066113233566 -1.4318511486 0.059492111206 -1.4318499565 0.052874028683 -1.4318487644
          0.046258747578 -1.4318478107 0.039645850658 -1.4318468571 0.033035039902 -1.4318461418
          0.02642595768 -1.4318454266 0.019818305969 -1.4318449497 0.013211607933 -1.4318447113
          0.0066056251526 -1.4318444729 0 -1.4318444729 -0.0066056251526 -1.4318444729
          -0.013211607933 -1.4318447113 -0.019818305969 -1.4318450093 -0.02642595768 -1.431845516
          -0.033035039902 -1.431846112 -0.039645850658 -1.4318468571 -0.046258747578 -1.4318477213
          -0.052874028683 -1.4318487644 -0.059492111206 -1.4318498969 -0.066113233566 -1.4318511486
          -0.072737872601 -1.4318525791 -0.079366266727 -1.4318541288 -0.085998773575 -1.4318557978
          -0.092635810375 -1.4318575859 -0.099277675152 -1.4318597317 -0.10592472553 -1.431861639
          -0.11257725954 -1.4318640232 -0.11923569441 -1.4318664074 -0.12590032816 -1.4318687916
          -0.13257151842 -1.4318714142 -0.13924956322 -1.4318742752 -0.14593493938 -1.4318771362
          -0.15262782574 -1.4318799973 -0.15932869911 -1.4318833351 -0.16603779793 -1.431886673
          -0.17275559902 -1.4318900108 -0.17948228121 -1.4318938255 -0.18621832132 -1.4318971634
          -0.19296401739 -1.4319009781 -0.19971972704 -1.4319052696 -0.2064858079 -1.4319090843
          -0.21326255798 -1.4319133759 -0.22005033493 -1.4319181442 -0.22684955597 -1.4319224358
          -0.23366045952 -1.4319272041 -0.24048340321 -1.4319319725 -0.24731880426 -1.4319367409
          -0.25416699052 -1.4319419861 -0.26102825999 -1.4319467545 -0.26790300012 -1.4319524765
          -0.27479153872 -1.4319581985 -0.28169420362 -1.4319639206 -0.28861138225 -1.4319696426
          -0.29554337263 -1.4319753647 -0.3024905622 -1.4319810867 -0.30945327878 -1.4319868088
          -0.31643185019 -1.4319934845 -0.32342663407 -1.4320001602 0.32340145111 -1.4249591827
          0.31640720367 -1.4249505997 0.3094291687 -1.4249420166 0.30246698856 -1.4249334335
          0.29552030563 -1.4249258041 0.28858876228 -1.4249181747 0.28167212009 -1.4249105453
          0.27477002144 -1.424902916 0.26788198948 -1.4248952866 0.2610077858 -1.4248886108
          0.25414705276 -1.4248819351 0.24729943275 -1.4248752594 0.24046456814 -1.4248685837
          0.23364210129 -1.424861908 0.22683167458 -1.4248552322 0.22003304958 -1.4248495102
          0.21324574947 -1.4248437881 0.20646953583 -1.4248380661 0.19970405102 -1.4248323441
          0.19294881821 -1.4248275757 0.18620359898 -1.4248218536 0.17946815491 -1.4248170853
          0.17274188995 -1.4248123169 0.16602468491 -1.4248080254 0.15931606293 -1.424803257
          0.1526157856 -1.4247994423 0.14592337608 -1.4247951508 0.13923859596 -1.4247913361
          0.1325609684 -1.4247875214 0.12589037418 -1.4247841835 0.11922621727 -1.4247808456
          0.11256837845 -1.4247775078 0.10591626167 -1.4247746468 0.099269866943 -1.4247717857
          0.092628479004 -1.4247694016 0.085991978645 -1.4247670174 0.07936000824 -1.4247646332
          0.07273209095 -1.4247627258 0.066107988358 -1.4247605801 0.059487342834 -1.4247589111
          0.052869796753 -1.4247572422 0.046255111694 -1.4247560501 0.039642691612 -1.424754858
          0.033032417297 -1.4247539043 0.026423931122 -1.4247529507 0.019816756248 -1.4247524738
          0.013210535049 -1.424751997 0.0066051483154 -1.4247516394 0 -1.4247516394
          -0.0066050887108 -1.4247516394 -0.013210535049 -1.4247519374 -0.019816696644 -1.4247524142
          -0.026423871517 -1.4247530401 -0.033032417297 -1.4247538447 -0.039642691612 -1.4247548431
          -0.04625505209 -1.4247560203 -0.052869856358 -1.4247573614 -0.059487342834 -1.4247589111
          -0.066107988358 -1.4247605801 -0.07273209095 -1.4247624874 -0.079359948635 -1.424764514
          -0.085991978645 -1.4247667789 -0.092628479004 -1.4247691631 -0.099269807339 -1.4247717857
          -0.10591632128 -1.4247746468 -0.11256831884 -1.4247775078 -0.11922621727 -1.4247808456
          -0.12589031458 -1.4247841835 -0.132561028 -1.4247875214 -0.13923853636 -1.4247913361
          -0.14592337608 -1.4247951508 -0.15261572599 -1.4247994423 -0.15931606293 -1.424803257
          -0.16602468491 -1.4248080254 -0.17274194956 -1.4248123169 -0.1794680953 -1.4248170853
          -0.18620365858 -1.4248223305 -0.19294881821 -1.4248270988 -0.19970399141 -1.4248328209
          -0.20646953583 -1.4248380661 -0.21324574947 -1.4248437881 -0.22003304958 -1.4248495102
          -0.22683167458 -1.4248557091 -0.23364204168 -1.424861908 -0.24046450853 -1.4248681068
          -0.24729937315 -1.4248747826 -0.25414705276 -1.4248819351 -0.2610077858 -1.4248886108
          -0.26788198948 -1.4248952866 -0.27477002144 -1.424902916 -0.2816721797 -1.4249105453
          -0.28858882189 -1.4249181747 -0.29552030563 -1.4249258041 -0.30246692896 -1.4249334335
          -0.3094291091 -1.4249420166 -0.31640714407 -1.4249505997 -0.32340145111 -1.4249591827
          0.32336902618 -1.4179182053 0.316375494 -1.4179077148 0.30939805508 -1.4178972244
          0.30243659019 -1.417886734 0.29549062252 -1.4178771973 0.28855979443 -1.4178676605
          0.28164386749 -1.4178581238 0.27474236488 -1.417848587 0.26785504818 -1.4178390503
          0.26098144054 -1.4178304672 0.25412142277 -1.4178218842 0.2472743988 -1.4178133011
          0.24044024944 -1.417804718 0.23361837864 -1.4177970886 0.22680878639 -1.4177894592
          0.22001075745 -1.4177818298 0.21322417259 -1.4177742004 0.20644855499 -1.4177675247
          0.19968378544 -1.417760849 0.19292926788 -1.4177541733 0.18618476391 -1.4177474976
          0.17944991589 -1.4177417755 0.17272436619 -1.4177355766 0.16600775719 -1.4177298546
          0.15929985046 -1.4177241325 0.15260016918 -1.4177188873 0.14590847492 -1.4177136421
          0.13922441006 -1.4177088737 0.13254749775 -1.4177045822 0.12587749958 -1.4176998138
          0.11921405792 -1.4176959991 0.11255681515 -1.4176917076 0.10590553284 -1.4176883698
          0.099259734154 -1.4176845551 0.09261906147 -1.4176812172 0.085983157158 -1.4176783562
          0.079351902008 -1.4176754951 0.072724699974 -1.417673111 0.066101193428 -1.4176707268
          0.059481263161 -1.417668581 0.052864432335 -1.4176666737 0.046250343323 -1.4176650047
          0.039638638496 -1.4176633358 0.033029079437 -1.4176621437 0.026421189308 -1.41766119
          0.019814729691 -1.4176604748 0.013209223747 -1.4176598787 0.0066044330597 -1.4176595211
          0 -1.4176594019 -0.0066044330597 -1.4176595211 -0.013209223747 -1.4176598191
          -0.019814729691 -1.4176604152 -0.026421189308 -1.4176611602 -0.033029079437 -1.4176621884
          -0.039638638496 -1.4176634252 -0.046250343323 -1.4176648855 -0.052864432335 -1.4176665545
          -0.059481263161 -1.4176684618 -0.066101193428 -1.4176706076 -0.072724699974 -1.4176729918
          -0.079351902008 -1.4176756144 -0.085983157158 -1.4176783562 -0.09261906147 -1.4176814556
          -0.099259734154 -1.4176847935 -0.10590553284 -1.4176881313 -0.11255681515 -1.417691946
          -0.11921405792 -1.4176957607 -0.12587749958 -1.4177000523 -0.13254749775 -1.4177043438
          -0.13922441006 -1.4177088737 -0.14590847492 -1.4177136421 -0.15260016918 -1.4177188873
          -0.15929985046 -1.4177241325 -0.16600775719 -1.4177298546 -0.17272436619 -1.4177355766
          -0.17944991589 -1.4177412987 -0.18618476391 -1.4177474976 -0.19292926788 -1.4177541733
          -0.19968378544 -1.417760849 -0.20644855499 -1.4177675247 -0.21322417259 -1.4177746773
          -0.22001075745 -1.4177818298 -0.22680878639 -1.4177894592 -0.23361837864 -1.4177970886
          -0.24044024944 -1.4178051949 -0.2472743988 -1.4178133011 -0.25412136316 -1.4178218842
          -0.26098144054 -1.4178304672 -0.26785498857 -1.4178390503 -0.27474230528 -1.417848587
          -0.28164380789 -1.4178581238 -0.28855979443 -1.4178676605 -0.29549056292 -1.4178771973
          -0.30243659019 -1.417886734 -0.30939805508 -1.4178972244 -0.3163754344 -1.4179077148
          -0.32336902618 -1.4179182053 0.3233294487 -1.4108791351 0.31633663177 -1.4108657837
          0.30936014652 -1.4108533859 0.3023993969 -1.4108409882 0.29545426369 -1.4108295441
          0.28852427006 -1.4108171463 0.28160917759 -1.4108057022 0.27470850945 -1.4107952118
          0.26782202721 -1.4107837677 0.26094925404 -1.4107732773 0.25409007072 -1.4107627869
          0.24724388123 -1.4107522964 0.24041056633 -1.4107427597 0.23358952999 -1.410733223
          0.226780653 -1.4107236862 0.21998357773 -1.4107151031 0.21319770813 -1.4107065201
          0.2064230442 -1.410697937 0.19965898991 -1.4106893539 0.19290530682 -1.4106817245
          0.18616163731 -1.4106740952 0.17942762375 -1.4106664658 0.17270290852 -1.4106593132
          0.16598713398 -1.4106521606 0.15928006172 -1.4106454849 0.1525812149 -1.410639286
          0.14589035511 -1.4106330872 0.1392070055 -1.4106273651 0.13253104687 -1.4106221199
          0.12586188316 -1.4106163979 0.11919927597 -1.4106116295 0.11254286766 -1.4106068611
          0.10589230061 -1.4106025696 0.099247336388 -1.410598278 0.092607498169 -1.4105944633
          0.085972428322 -1.4105906487 0.079342007637 -1.4105873108 0.072715640068 -1.4105844498
          0.066092967987 -1.4105813503 0.059473872185 -1.4105787277 0.052857875824 -1.410576582
          0.046244621277 -1.4105744362 0.039633750916 -1.4105727673 0.033024907112 -1.4105713367
          0.026417851448 -1.4105701447 0.019812226295 -1.410569191 0.013207554817 -1.4105684757
          0.0066035985947 -1.4105679989 0 -1.4105678797 -0.0066035985947 -1.4105679989
          -0.013207554817 -1.4105684161 -0.019812226295 -1.4105691314 -0.026417851448 -1.4105700552
          -0.033024907112 -1.4105712771 -0.039633750916 -1.4105727598 -0.046244621277 -1.4105745256
          -0.052857875824 -1.4105765224 -0.059473872185 -1.4105788469 -0.066092967987 -1.4105813503
          -0.072715640068 -1.4105842113 -0.079342007637 -1.4105873108 -0.085972428322 -1.4105907679
          -0.092607498169 -1.4105944633 -0.099247336388 -1.410598278 -0.10589230061 -1.4106025696
          -0.11254286766 -1.4106068611 -0.11919927597 -1.4106116295 -0.12586188316 -1.4106166363
          -0.13253104687 -1.4106218815 -0.1392070055 -1.4106273651 -0.14589035511 -1.4106330872
          -0.1525812149 -1.410639286 -0.15928006172 -1.4106454849 -0.16598713398 -1.4106521606
          -0.17270290852 -1.4106593132 -0.17942762375 -1.4106664658 -0.18616163731 -1.4106736183
          -0.19290530682 -1.4106812477 -0.19965898991 -1.4106893539 -0.2064230442 -1.4106974602
          -0.21319770813 -1.4107060432 -0.21998357773 -1.4107151031 -0.226780653 -1.4107241631
          -0.23358952999 -1.410733223 -0.24041056633 -1.4107427597 -0.24724388123 -1.4107527733
          -0.25409007072 -1.4107627869 -0.26094925404 -1.4107732773 -0.26782202721 -1.4107837677
          -0.27470850945 -1.4107952118 -0.28160917759 -1.4108057022 -0.28852427006 -1.4108171463
          -0.29545426369 -1.4108295441 -0.3023993969 -1.4108409882 -0.30936014652 -1.4108533859
          -0.31633663177 -1.4108657837 -0.3233294487 -1.4108791351 0.32328271866 -1.403840065
          0.31629085541 -1.4038248062 0.30931520462 -1.4038105011 0.30235552788 -1.403796196
          0.29541134834 -1.4037818909 0.2884824276 -1.4037685394 0.2815682888 -1.403755188
          0.27466845512 -1.4037418365 0.26778292656 -1.4037294388 0.26091122627 -1.403717041
          0.25405287743 -1.4037046432 0.24720788002 -1.4036931992 0.24037539959 -1.4036817551
          0.23355543613 -1.403670311 0.22674751282 -1.4036598206 0.21995139122 -1.4036483765
          0.21316659451 -1.4036388397 0.20639276505 -1.4036283493 0.19962978363 -1.4036188126
          0.19287705421 -1.4036102295 0.18613433838 -1.4036006927 0.1794012785 -1.4035921097
          0.17267751694 -1.4035840034 0.16596281528 -1.4035758972 0.1592566967 -1.4035682678
          0.15255880356 -1.4035606384 0.14586889744 -1.4035534859 0.13918662071 -1.4035468102
          0.13251149654 -1.4035401344 0.12584328651 -1.4035344124 0.119181633 -1.4035282135
          0.11252629757 -1.4035229683 0.10587668419 -1.4035177231 0.099232673645 -1.4035129547
          0.092593789101 -1.4035081863 0.085959792137 -1.4035038948 0.079330205917 -1.4035000801
          0.072704911232 -1.4034962654 0.066083192825 -1.403493166 0.059465050697 -1.4034900665
          0.052850008011 -1.4034874439 0.046237707138 -1.4034850597 0.03962790966 -1.403482914
          0.033020019531 -1.403481245 0.026414036751 -1.4034798145 0.019809246063 -1.4034788609
          0.013205647469 -1.4034779072 0.0066026449203 -1.4034774303 0 -1.4034773111
          -0.0066026449203 -1.4034774303 -0.013205647469 -1.4034779668 -0.019809246063 -1.4034787416
          -0.026414036751 -1.4034798443 -0.033020019531 -1.4034812599 -0.03962790966 -1.4034829959
          -0.046237707138 -1.4034850299 -0.052850008011 -1.4034873843 -0.059465050697 -1.4034900665
          -0.066083192825 -1.4034930468 -0.072704911232 -1.4034963846 -0.079330205917 -1.4034999609
          -0.085959792137 -1.4035038948 -0.092593789101 -1.4035081863 -0.099232673645 -1.4035127163
          -0.10587668419 -1.4035177231 -0.11252629757 -1.4035227299 -0.119181633 -1.4035284519
          -0.12584328651 -1.403534174 -0.13251149654 -1.4035403728 -0.13918662071 -1.4035468102
          -0.14586889744 -1.4035534859 -0.15255880356 -1.4035606384 -0.1592566967 -1.4035682678
          -0.16596281528 -1.4035758972 -0.17267751694 -1.4035840034 -0.1794012785 -1.4035921097
          -0.18613433838 -1.4036006927 -0.19287705421 -1.4036097527 -0.19962978363 -1.4036192894
          -0.20639276505 -1.4036288261 -0.21316659451 -1.4036388397 -0.21995139122 -1.4036488533
          -0.22674751282 -1.4036593437 -0.23355543613 -1.403670311 -0.24037539959 -1.4036812782
          -0.24720788002 -1.4036927223 -0.25405299664 -1.4037046432 -0.26091122627 -1.403717041
          -0.26778304577 -1.4037294388 -0.27466857433 -1.4037418365 -0.28156816959 -1.403755188
          -0.2884824276 -1.4037685394 -0.29541134834 -1.4037818909 -0.30235552788 -1.403796196
          -0.30931532383 -1.4038105011 -0.31629085541 -1.4038248062 -0.32328259945 -1.403840065
          0.32322859764 -1.3968029022 0.31623792648 -1.3967857361 0.30926346779 -1.3967685699
          0.30230498314 -1.3967523575 0.2953619957 -1.396736145 0.28843402863 -1.3967208862
          0.28152084351 -1.3967056274 0.27462244034 -1.3966903687 0.26773810387 -1.3966760635
          0.26086735725 -1.3966617584 0.2540102005 -1.3966474533 0.24716615677 -1.3966341019
          0.24033498764 -1.3966207504 0.23351597786 -1.3966083527 0.22670936584 -1.3965959549
          0.21991419792 -1.3965835571 0.21313047409 -1.396572113 0.20635795593 -1.3965606689
          0.19959592819 -1.3965501785 0.19284439087 -1.3965387344 0.18610286713 -1.3965291977
          0.17937088013 -1.3965187073 0.17264842987 -1.3965096474 0.1659348011 -1.3965001106
          0.1592297554 -1.3964915276 0.15253305435 -1.3964829445 0.14584422112 -1.3964748383
          0.13916301727 -1.3964672089 0.13248896599 -1.3964595795 0.12582182884 -1.3964529037
          0.11916136742 -1.396446228 0.11250710487 -1.3964400291 0.1058588028 -1.3964338303
          0.099215745926 -1.3964281082 0.092578172684 -1.396422863 0.085945129395 -1.3964180946
          0.079316854477 -1.3964138031 0.072692394257 -1.3964095116 0.066071987152 -1.3964056969
          0.059454917908 -1.396402359 0.052840948105 -1.3963992596 0.046229839325 -1.396396637
          0.039621114731 -1.3963942528 0.033014535904 -1.3963923454 0.026409387589 -1.3963906765
          0.019805908203 -1.3963894844 0.013203382492 -1.3963885307 0.0066015720367 -1.3963879347
          0 -1.3963878155 -0.0066014528275 -1.3963879347 -0.013203382492 -1.3963885307
          -0.019805908203 -1.3963894248 -0.026409506798 -1.3963906765 -0.033014416695 -1.3963923007
          -0.039621114731 -1.3963942826 -0.046229839325 -1.3963966072 -0.052841067314 -1.3963993192
          -0.059454917908 -1.396402359 -0.066071987152 -1.3964058161 -0.072692513466 -1.3964096308
          -0.079316735268 -1.3964136839 -0.085945129395 -1.3964182138 -0.092578053474 -1.3964231014
          -0.099215865135 -1.3964283466 -0.10585868359 -1.3964338303 -0.11250710487 -1.3964397907
          -0.11916148663 -1.396446228 -0.12582194805 -1.3964526653 -0.13248896599 -1.3964598179
          -0.13916289806 -1.3964672089 -0.14584410191 -1.3964748383 -0.15253293514 -1.3964829445
          -0.15922963619 -1.3964915276 -0.16593468189 -1.3965001106 -0.17264831066 -1.3965096474
          -0.17937088013 -1.3965191841 -0.18610286713 -1.3965287209 -0.19284439087 -1.3965392113
          -0.1995960474 -1.3965497017 -0.20635795593 -1.3965606689 -0.2131305933 -1.396572113
          -0.21991419792 -1.396584034 -0.22670924664 -1.3965959549 -0.23351609707 -1.3966083527
          -0.24033486843 -1.3966212273 -0.24716615677 -1.3966341019 -0.2540102005 -1.3966474533
          -0.26086735725 -1.3966617584 -0.26773798466 -1.3966760635 -0.27462244034 -1.3966903687
          -0.28152096272 -1.3967056274 -0.28843402863 -1.3967208862 -0.29536187649 -1.396736145
          -0.30230498314 -1.3967523575 -0.30926346779 -1.3967685699 -0.31623792648 -1.3967857361
          -0.32322859764 -1.3968029022 0.32316732407 -1.3897657394 0.31617808342 -1.389746666
          0.30920481682 -1.3897275925 0.30224752426 -1.3897094727 0.29530572891 -1.3896913528
          0.28837919235 -1.3896741867 0.28146743774 -1.3896570206 0.27457022667 -1.3896398544
          0.26768708229 -1.389623642 0.26081776619 -1.3896074295 0.25396180153 -1.3895921707
          0.24711894989 -1.3895769119 0.24028897285 -1.3895616531 0.23347139359 -1.389547348
          0.22666597366 -1.3895339966 0.21987223625 -1.3895196915 0.21308970451 -1.3895072937
          0.20631837845 -1.3894939423 0.19955778122 -1.3894815445 0.19280743599 -1.3894701004
          0.18606710434 -1.3894586563 0.17933654785 -1.3894472122 0.17261505127 -1.389436245
          0.16590285301 -1.3894262314 0.1591989994 -1.3894162178 0.15250372887 -1.3894066811
          0.14581608772 -1.3893976212 0.13913607597 -1.3893885612 0.1324634552 -1.389380455
          0.12579774857 -1.3893723488 0.11913847923 -1.3893651962 0.11248540878 -1.3893580437
          0.1058382988 -1.389351368 0.09919667244 -1.3893451691 0.09256029129 -1.3893389702
          0.085928678513 -1.389333725 0.079301357269 -1.3893284798 0.072678565979 -1.3893241882
          0.066059350967 -1.3893196583 0.059443473816 -1.3893158436 0.052830934525 -1.3893125057
          0.046221017838 -1.3893094063 0.039613485336 -1.3893067837 0.033008098602 -1.3893046379
          0.026404380798 -1.3893027306 0.019802093506 -1.3893013 0.013200759888 -1.3893002272
          0.0066001415253 -1.3892996311 0 -1.3892995119 -0.0066001415253 -1.3892996311
          -0.013200759888 -1.3893002868 -0.019802093506 -1.3893013 -0.026404380798 -1.3893027008
          -0.033008098602 -1.3893045336 -0.039613485336 -1.3893067613 -0.046221017838 -1.3893094063
          -0.052830934525 -1.3893124461 -0.059443473816 -1.3893159032 -0.066059350967 -1.3893197775
          -0.072678565979 -1.3893239498 -0.079301357269 -1.389328599 -0.085928678513 -1.389333725
          -0.09256029129 -1.3893392086 -0.09919667244 -1.3893449306 -0.1058382988 -1.389351368
          -0.11248540878 -1.3893580437 -0.11913847923 -1.3893651962 -0.12579774857 -1.3893725872
          -0.1324634552 -1.389380455 -0.13913607597 -1.3893887997 -0.14581608772 -1.3893976212
          -0.15250372887 -1.3894066811 -0.1591989994 -1.3894162178 -0.16590285301 -1.3894262314
          -0.17261505127 -1.389436245 -0.17933654785 -1.3894472122 -0.18606710434 -1.3894581795
          -0.19280743599 -1.3894696236 -0.19955778122 -1.3894815445 -0.20631837845 -1.3894939423
          -0.21308970451 -1.3895068169 -0.21987223625 -1.3895201683 -0.22666597366 -1.3895335197
          -0.23347139359 -1.389547348 -0.24028897285 -1.38956213 -0.24711894989 -1.3895769119
          -0.25396180153 -1.3895921707 -0.26081764698 -1.3896074295 -0.26768696308 -1.389623642
          -0.27457010746 -1.3896398544 -0.28146743774 -1.3896570206 -0.28837919235 -1.3896741867
          -0.29530572891 -1.3896913528 -0.30224752426 -1.3897094727 -0.30920481682 -1.3897275925
          -0.31617808342 -1.389746666 -0.32316744328 -1.3897657394 0.32309913635 -1.382730484
          0.3161110878 -1.3827095032 0.30913925171 -1.3826885223 0.30218338966 -1.3826684952
          0.29524302483 -1.382648468 0.28831791878 -1.3826284409 0.28140759468 -1.3826093674
          0.27451181412 -1.3825902939 0.26763010025 -1.3825721741 0.26076197624 -1.3825550079
          0.25390768051 -1.3825378418 0.24706625938 -1.3825206757 0.24023771286 -1.3825044632
          0.2334215641 -1.3824882507 0.22661757469 -1.3824729919 0.21982502937 -1.3824577332
          0.21304416656 -1.3824424744 0.20627427101 -1.3824291229 0.19951510429 -1.3824148178
          0.19276618958 -1.3824014664 0.18602728844 -1.3823890686 0.17929792404 -1.3823766708
          0.17257809639 -1.3823647499 0.16586709023 -1.3823533058 0.15916490555 -1.3823418617
          0.1524708271 -1.3823313713 0.14578485489 -1.3823213577 0.13910627365 -1.382311821
          0.13243508339 -1.3823022842 0.12577056885 -1.3822937012 0.11911273003 -1.3822855949
          0.11246132851 -1.3822774887 0.10581541061 -1.3822703362 0.099175214767 -1.3822631836
          0.09254026413 -1.3822565079 0.085910081863 -1.382250309 0.07928442955 -1.3822450638
          0.072662830353 -1.3822398186 0.066045045853 -1.3822350502 0.059430599213 -1.3822307587
          0.052819490433 -1.382226944 0.046211004257 -1.3822236061 0.039604902267 -1.3822205067
          0.033000946045 -1.3822181225 0.026398658752 -1.3822162151 0.019797801971 -1.3822145462
          0.013197898865 -1.3822133541 0.0065987110138 -1.3822127581 0 -1.3822125196
          -0.0065987110138 -1.3822127581 -0.013197898865 -1.3822134137 -0.019797801971 -1.3822145462
          -0.026398658752 -1.3822160959 -0.033000946045 -1.3822181225 -0.039604902267 -1.3822206035
          -0.046211004257 -1.3822235167 -0.052819490433 -1.3822268844 -0.059430599213 -1.3822306991
          -0.066045045853 -1.3822350502 -0.072662830353 -1.3822396994 -0.07928442955 -1.3822449446
          -0.085910081863 -1.3822505474 -0.09254026413 -1.3822565079 -0.099175214767 -1.3822631836
          -0.10581541061 -1.3822700977 -0.11246132851 -1.3822774887 -0.11911273003 -1.3822853565
          -0.12577056885 -1.3822937012 -0.13243508339 -1.3823025227 -0.13910627365 -1.382311821
          -0.14578485489 -1.3823213577 -0.1524708271 -1.3823313713 -0.15916490555 -1.3823418617
          -0.16586709023 -1.3823533058 -0.17257809639 -1.3823647499 -0.17929792404 -1.3823766708
          -0.18602728844 -1.3823890686 -0.19276618958 -1.3824019432 -0.19951510429 -1.3824148178
          -0.20627427101 -1.3824286461 -0.21304416656 -1.3824429512 -0.21982502937 -1.3824577332
          -0.22661757469 -1.3824725151 -0.2334215641 -1.3824882507 -0.24023771286 -1.3825039864
          -0.24706625938 -1.3825206757 -0.25390768051 -1.3825378418 -0.26076197624 -1.3825550079
          -0.26763010025 -1.3825721741 -0.27451181412 -1.3825902939 -0.28140759468 -1.3826093674
          -0.28831791878 -1.3826284409 -0.29524302483 -1.382648468 -0.30218338966 -1.3826684952
          -0.30913925171 -1.3826885223 -0.3161110878 -1.3827095032 -0.32309913635 -1.382730484
          0.32302355766 -1.3756971359 0.31603693962 -1.3756732941 0.30906677246 -1.3756504059
          0.30211257935 -1.3756284714 0.29517388344 -1.3756065369 0.2882502079 -1.3755846024
          0.28134131432 -1.3755636215 0.27444720268 -1.3755426407 0.26756691933 -1.3755226135
          0.26070070267 -1.37550354 0.25384783745 -1.3754844666 0.24700808525 -1.3754653931
          0.24018096924 -1.3754482269 0.23336648941 -1.3754301071 0.22656393051 -1.375412941
          0.21977305412 -1.3753967285 0.21299386024 -1.3753805161 0.2062253952 -1.3753652573
          0.199467659 -1.3753499985 0.19272041321 -1.3753347397 0.185983181 -1.3753213882
          0.17925548553 -1.3753070831 0.17253708839 -1.3752942085 0.16582775116 -1.3752818108
          0.15912699699 -1.375269413 0.15243458748 -1.3752579689 0.14575004578 -1.3752470016
          0.13907313347 -1.3752360344 0.13240361214 -1.3752260208 0.12574076653 -1.3752164841
          0.11908459663 -1.3752074242 0.11243438721 -1.3751983643 0.10579037666 -1.375190258
          0.099151611328 -1.3751826286 0.09251832962 -1.3751754761 0.085889577866 -1.3751688004
          0.079265356064 -1.3751626015 0.072645425797 -1.3751568794 0.066029310226 -1.3751518726
          0.059416532516 -1.3751471043 0.052806854248 -1.3751428127 0.046200037003 -1.3751392365
          0.039595365524 -1.3751358986 0.032993078232 -1.375133276 0.026392459869 -1.3751308918
          0.0197930336 -1.3751292229 0.013194799423 -1.3751280308 0.0065972805023 -1.3751273155
          0 -1.3751270771 -0.0065972805023 -1.3751273155 -0.013194799423 -1.3751280308
          -0.0197930336 -1.3751292229 -0.026392459869 -1.3751309812 -0.032993078232 -1.3751332164
          -0.039595365524 -1.3751359358 -0.046200037003 -1.375139147 -0.052806854248 -1.3751428723